 -6.9752641e-02   3.3402137e-02
  1.5279512e-02   2.6527356e-02
 -3.0167513e-02   3.5792686e-02
 -1.6227482e-02   3.0085418e-02
 -4.3282852e-02   3.5920460e-02
  2.8984456e+00   2.9885659e-02
  1.5006398e+00   2.2342950e-02
  1.9599216e+00   2.9826023e-02
  1.1227420e-01   2.7363405e-02
 -4.1566321e-01   6.0992617e-02
  8.8152075e-01   8.9766540e-02
 -1.5958475e+00   1.3252364e-02
  1.0947938e-01   4.5153059e-02
  2.5513729e-02   3.2599133e-02
  1.9084591e+00   2.4868548e-03
  1.1193739e+00   8.6506888e-02
  5.6729816e-02   5.0296206e-02
 -5.8535433e-01   1.3694944e-02
  3.9664304e-01   8.3661385e-02
  4.0655425e-01   4.8438363e-02
 -1.5812552e-01   7.5352965e-03
 -1.2597498e+00   4.8394375e-02
 -7.2338635e-01   1.3219923e-02
  5.2316034e-01   2.2677790e-02
 -1.0687362e+00   1.1553735e-02
 -9.7278774e-01   1.2180836e-02
 -4.0056187e-01   8.0891572e-02
  5.0706440e-01   4.6412397e-02
  2.1062855e-01   3.3637803e-02
 -7.2606391e-01   2.8763749e-02
 -1.3709429e-01   6.8728425e-02
 -9.3629926e-01   4.3075871e-02
  3.6982009e-01   2.7540047e-02
 -3.9911357e-01   3.9333176e-02
  3.2590868e+00   8.8368086e-03
  4.4801098e-01   5.6290764e-02
  1.2524679e+00   3.0180741e-02
  1.1457352e-01   3.4145445e-02
 -3.4762479e-02   5.7474066e-02
 -7.7672964e-01   6.7884713e-02
 -1.4005605e+00   2.0355416e-02
 -6.5765411e-01   9.3430765e-02
  5.2683264e-02   4.9015045e-02
 -4.5207849e-01   9.6410431e-02
 -1.1048912e+00   5.4113660e-02
 -4.1363694e-02   9.4297394e-02
  1.4793725e-01   8.6047519e-03
  1.0309205e+00   9.8490968e-02
  4.0171012e-01   3.5602074e-02
 -1.1930095e-01   3.1333510e-02
  1.7913384e+00   5.1934812e-02
 -5.8236444e-01   5.3265069e-02
  2.8568313e-03   2.6980959e-02
  1.1378827e-01   4.0277410e-03
 -1.1219225e+00   2.8442636e-02
  2.7582389e-01   4.9167503e-02
  1.0004038e+00   2.8977903e-02
  4.5272827e-01   3.2484125e-02
  2.9254858e+00   9.7327400e-03
 -5.1827502e-01   3.8091663e-02
 -5.7263130e-01   1.2647226e-02
 -2.8166306e-01   5.8483880e-02
 -5.8168405e-01   3.7675116e-02
  1.4326550e-01   2.1407261e-02
 -3.1332150e+00   2.3249209e-02
 -1.1797274e-01   4.6619881e-02
  2.7043551e-01   1.2389412e-02
 -2.2378749e-01   1.9417573e-02
  4.0560357e-02   3.4178238e-02
  1.7646028e+00   5.7962867e-03
 -2.7396894e-01   9.9444881e-02
  1.9331896e+00   9.7801380e-02
  1.1745931e+00   1.6143266e-02
  6.8551993e-01   3.3806447e-02
 -3.5910960e-03   3.1403288e-02
  5.1555079e-01   7.1299419e-02
 -7.5619823e-01   2.2472981e-02
 -1.3793219e+00   2.8705806e-03
  1.7165775e+00   1.7798979e-02
  9.6016340e-02   3.9249387e-02
 -8.8728464e-01   6.7060612e-02
  2.6488662e-01   3.3380900e-02
 -2.0200694e-01   4.5942225e-02
 -1.7551672e+00   1.5300643e-02
 -3.6588322e-02   6.6375695e-02
  3.4102023e-01   7.5943060e-02
  1.5137571e-01   9.6086815e-02
 -2.8142110e-01   8.4926009e-02
  1.1594129e+00   1.8947830e-02
  1.3955247e+00   1.4302496e-02
  4.1453069e-01   6.0062531e-02
  3.8191497e-02   2.6500404e-02
 -8.3799273e-01   2.6823752e-02
 -1.0733995e+00   4.2963594e-02
 -1.3723285e+00   2.2671517e-02
 -7.1769172e-01   4.6387073e-02
  1.0315530e+00   4.5863952e-02
 -1.1829290e+00   1.9000296e-02
 -7.5129288e-01   9.8634377e-02
 -4.6339560e-01   3.4485448e-02
 -1.3199854e+00   3.0115683e-02
 -6.4416939e-01   1.0693681e-02
 -8.9151073e-01   2.1120666e-02
 -1.2580073e-01   9.0915792e-02
  3.2054216e-01   8.7416530e-02
 -4.8626012e-01   1.2305495e-02
 -6.4135498e-01   9.6071782e-03
  7.0769034e-02   4.5365032e-02
 -9.0117931e-01   6.2379953e-02
 -5.6230450e-01   1.6233779e-02
 -1.3027700e+00   6.9490463e-02
  9.8693305e-01   3.6755100e-02
 -4.7785887e-01   3.3423666e-02
 -2.4438749e-01   1.4457748e-02
 -1.2947266e+00   5.7909455e-02
 -3.4161997e-01   1.3475123e-02
  1.6768572e+00   2.4510259e-02
 -7.8392762e-01   7.2285756e-02
  2.8390363e-01   7.5265735e-02
  3.0774322e-01   8.2834423e-02
 -1.2312939e+00   5.9110265e-02
  8.7572644e-03   8.5907489e-02
  9.2059791e-01   5.8555484e-02
 -1.2296565e-01   8.0525383e-02
  1.4048171e-03   2.9128645e-02
 -1.4314044e+00   1.0618480e-02
  2.1149474e-01   4.7421339e-03
 -1.0061613e+00   4.3534830e-02
  6.5327871e-01   7.9797179e-02
  4.5684025e-01   5.0480075e-02
  1.4498888e+00   8.4128179e-02
 -9.0446830e-01   1.4339345e-02
 -3.3196980e-01   5.8770929e-02
  5.7749307e-01   2.2467606e-02
  1.5998853e+00   1.5440016e-02
 -3.0310553e-01   6.3452117e-02
 -1.1958826e+00   2.3133902e-02
  3.8396668e-01   3.9599739e-02
  6.9518209e-01   3.5240386e-02
  6.1683428e-02   7.1831919e-02
 -2.9170462e-01   5.3292748e-02
  2.9712409e-02   4.5034602e-02
  1.2331958e+00   7.8138255e-02
  1.0239737e+00   7.7004619e-02
 -6.1543143e-01   4.9302299e-02
 -1.1776024e-01   2.4402454e-02
 -7.5223193e-02   8.2705162e-02
 -8.0783308e-02   5.7799242e-02
 -1.3981248e-01   8.5189946e-02
  9.7255492e-01   5.9083335e-02
 -6.1352497e-01   6.1254077e-02
 -7.5876123e-01   6.8921141e-02
  2.7870939e+00   6.5539435e-02
 -2.9054363e+00   3.0682696e-02
 -3.2497776e-01   1.9403715e-02
  2.9088023e-01   3.0513566e-02
  4.1704479e-01   3.1754140e-02
  1.2658782e+00   5.3510379e-02
  7.6077592e-01   5.6148645e-02
 -9.7921386e-02   2.5469586e-02
  1.7461343e+00   2.2049041e-02
  5.2994418e-01   9.1638230e-02
  5.2625561e-01   8.6760357e-02
  2.0784390e+00   5.1046559e-03
 -2.2471898e+00   7.5552866e-02
 -5.9098566e-01   3.7428286e-02
 -2.8370816e-01   1.2699204e-02
 -1.1534122e+00   1.7809710e-02
 -1.6522719e+00   8.0254674e-02
  1.2798007e-02   6.2060054e-02
 -4.5263383e-01   1.9107968e-02
  1.5195720e+00   2.1339376e-02
  3.3862472e-01   1.4973097e-02
  8.1764780e-02   9.6323853e-04
 -2.5195379e+00   5.7862801e-03
  9.5505238e-01   2.6491113e-02
  5.0744283e-01   2.3883197e-02
 -1.1385156e+00   6.3680656e-02
 -1.9622694e+00   6.9095204e-03
 -1.3030128e-01   2.0190561e-02
  2.7553299e-01   3.1348709e-02
 -1.6789349e+00   1.1227290e-02
  3.1990921e-01   4.3696135e-02
 -1.1305921e+00   1.2025615e-02
 -9.1627622e-01   3.1277869e-02
  1.0302425e-01   2.5540732e-02
 -3.6201689e-01   7.0045196e-02
 -3.7766922e-01   5.6578707e-02
 -1.8779354e+00   5.5782251e-02
  2.1629100e+00   1.4168637e-02
 -4.7582588e-01   4.9419139e-02
 -1.1547355e-01   9.5023677e-02
  3.1421164e-01   3.6000445e-02
 -1.0644119e+00   4.8957907e-02
 -9.6946724e-02   6.0928028e-02
  1.8696724e+00   5.5692606e-03
 -1.0512197e+00   3.3255018e-02
 -3.4626186e-01   9.3213227e-03
  1.0044242e+00   2.0259008e-02
  5.4103309e-01   2.8777370e-02
 -1.4313689e-01   1.9361837e-02
 -1.7952170e-02   5.3949490e-02
  6.2283772e-01   5.2175666e-03
 -1.7579931e-01   7.0468150e-02
  3.2273978e-01   4.8405405e-02
 -5.4150879e-01   1.9361999e-02
  1.5192305e-01   2.4462789e-02
  2.3749077e+00   7.5140679e-03
  2.1822837e-01   6.1933782e-02
 -2.1610723e+00   1.1386235e-03
  5.6299186e-01   3.5252932e-02
  4.4887164e-01   3.4401625e-02
 -4.4252393e-01   8.5495509e-02
 -1.3891312e+00   9.8856412e-02
  4.9550357e-01   4.9088892e-02
  1.9430397e-01   2.3256794e-02
  1.6191462e-02   4.3970726e-02
  1.0833189e+00   3.3505194e-02
 -3.3160655e+00   1.8199682e-02
 -7.7457368e-01   1.8032262e-02
 -7.6780158e-01   5.9942171e-02
  4.2665774e-01   5.7393875e-02
  6.3189721e-01   5.8928847e-02
 -1.4532735e+00   6.5062761e-02
 -6.0136271e-01   4.4941247e-02
  7.2471011e-01   3.6625996e-02
  1.5166388e+00   3.8206562e-02
 -1.3432997e+00   2.9618011e-03
  4.2741278e-01   1.0493499e-02
 -2.8429994e-01   4.3003947e-02
 -1.6078947e-01   5.6804713e-02
 -2.4008617e-01   7.8438632e-02
 -1.2871132e+00   2.7563008e-02
 -5.0709593e-01   5.2416082e-02
 -2.8847823e+00   7.4055307e-02
  2.4363074e+00   2.9128513e-03
 -2.2108649e-01   5.3376906e-02
  4.6934792e-01   4.3944273e-02
 -2.8829603e+00   4.7898060e-03
  3.8721898e-01   5.5800215e-03
  3.2772076e-01   6.2519699e-02
 -5.3594106e-01   2.6702194e-02
 -8.4405375e-01   9.6150570e-02
  1.4052087e-01   3.3806428e-02
 -1.4978866e-02   4.1797381e-02
 -2.5338564e+00   2.9388376e-02
 -6.5685511e-01   8.4586777e-02
 -8.7301028e-01   1.4716486e-02
 -5.4279268e-01   3.9703500e-02
 -8.5050726e-01   8.1155360e-02
  1.1324096e+00   7.3872022e-02
  1.1346452e-01   3.5523660e-02
  1.0304954e+00   7.4509732e-02
 -6.6331156e-02   1.3111309e-02
 -1.7765829e-01   5.7061329e-02
  3.2677874e-01   1.6667478e-02
  1.7275268e-01   4.3562781e-02
  1.0572144e+00   7.3661871e-02
  9.7604352e-01   5.7031903e-02
 -2.5775391e-01   3.8324829e-02
  2.3143065e+00   1.4158422e-03
  4.7206998e-01   4.4690806e-02
 -2.6956182e+00   2.4106123e-02
 -1.5854509e+00   2.9144619e-02
  1.7122164e+00   3.4028426e-02
 -5.6780154e-01   2.0908406e-02
  7.0489472e-01   9.4898619e-02
 -4.8034230e-01   9.7546168e-03
 -5.1074529e-01   6.2034495e-02
  1.5088542e+00   5.7987340e-02
  5.0643229e-01   4.0911552e-02
  7.0591800e-02   7.0272513e-02
 -3.7919815e+00   7.0084934e-03
  7.3744930e-02   7.9477839e-02
 -4.4507486e-01   4.8389945e-02
 -1.7900674e+00   6.9260992e-02
  1.6627284e+00   9.9368408e-02
 -1.3747274e+00   7.2279431e-02
 -2.3384221e+00   1.7891923e-02
  1.8198885e-01   4.0759224e-02
  1.7482033e-01   1.7546074e-02
  2.8157940e+00   2.8214923e-03
 -2.7924618e-01   2.8976314e-02
  1.3469257e+00   4.1794814e-02
 -6.8812633e-01   6.6195644e-02
  1.5169293e-01   6.4005293e-02
 -1.3049678e+00   5.3640034e-02
 -1.5782818e+00   1.5780475e-02
  9.2276961e-01   5.3006176e-02
 -5.6161082e-01   5.2109599e-02
 -4.9843794e-01   1.5064555e-02
  8.9534521e-02   1.7185189e-02
  2.6530683e-01   4.8788514e-02
 -1.0634167e+00   7.8278624e-02
  6.1799232e-02   7.7603377e-02
  2.1097578e-01   2.3321306e-02
 -4.4854820e-01   8.4534779e-02
  9.1091043e-01   6.8337753e-02
  5.0089347e-01   4.6558034e-02
 -1.3779345e+00   1.4868435e-02
 -1.8560029e+00   1.2363308e-02
  2.5387159e-01   6.2233310e-02
  2.6611292e-01   8.0385387e-02
  1.3104391e+00   1.4917822e-02
 -5.9602332e-01   2.0974245e-02
  1.2592088e-01   9.0734251e-03
 -8.9237988e-02   1.5970699e-02
  4.0096939e-01   7.7452160e-02
  2.1409018e-02   5.7964429e-02
 -1.2007339e+00   5.0529331e-02
 -1.4650158e+00   4.5013361e-02
  1.0894897e+00   2.5871735e-02
  7.8543209e-02   5.6452733e-02
  7.9982281e-01   4.6431415e-02
 -2.2521889e-01   1.3810002e-02
 -1.0348120e-01   2.4473304e-02
 -5.2255756e-01   6.4917900e-02
 -8.3305830e-01   7.6552063e-02
 -1.8598026e-01   5.6654204e-02
  2.1446567e+00   2.0442480e-02
  1.0050631e+00   3.7314035e-02
 -3.5159236e-01   7.9839163e-02
  1.0877175e+00   5.8328684e-02
 -7.6799977e-01   6.1631735e-02
 -9.6446049e-01   6.3960843e-02
  2.9970071e-01   7.9063281e-02
 -9.7928673e-01   7.8538008e-02
  1.2901324e+00   1.7134247e-02
  3.6625192e-01   5.9973776e-02
 -3.8811038e+00   1.9438149e-02
  5.4882890e-01   1.1339019e-02
 -2.6392928e-01   5.3145073e-02
 -8.7918091e-01   9.8328128e-02
 -1.0150252e-02   2.3724694e-02
  7.2537923e-01   7.5238891e-02
  1.3500161e-01   6.4269111e-02
 -7.4237895e-01   3.3270866e-02
  1.2533584e+00   1.0328311e-02
  9.6249229e-01   1.0456720e-02
 -2.8474605e-01   6.9813929e-02
  8.7825429e-01   2.8666174e-02
 -2.3323049e-01   4.3242518e-02
 -7.1323401e-01   9.4296537e-02
 -1.4858238e-02   4.6410829e-02
 -1.4058766e-01   6.6259146e-02
  1.7285379e+00   1.6485948e-02
  2.1897012e-01   3.0494077e-02
 -9.7717278e-02   1.0000000e-01
 -5.3767586e-01   7.1318798e-02
 -6.4858818e-01   6.3865888e-03
 -1.7348176e+00   9.3766004e-02
 -7.0412064e-01   2.5225941e-02
 -3.8834932e-01   5.8475476e-02
 -1.8667513e-01   4.4241142e-02
 -2.3790064e+00   2.4295446e-02
  7.2343808e-01   4.6687432e-02
  5.0623047e-01   4.8866808e-02
 -2.0237468e-01   5.1642083e-02
  1.7449424e-02   3.1503629e-02
  3.9102980e-01   2.9713150e-02
  1.3172688e+00   5.7638972e-03
 -1.0690150e+00   1.2994986e-02
  6.8008596e-01   8.6254068e-03
 -5.2876115e-01   7.7212743e-02
 -6.5926611e-01   1.8020077e-02
 -1.1861285e+00   5.3570244e-02
 -1.3246400e+00   3.8318399e-02
 -2.5420685e+00   1.3121426e-02
 -1.0161229e+00   6.8225272e-02
 -2.2885139e-01   7.6833129e-02
 -2.0154285e-01   1.2119832e-02
  2.3809381e-02   3.0835772e-02
  2.0254478e+00   5.5268031e-02
 -4.4060826e-01   7.0821203e-02
  2.0346090e-01   8.2119815e-02
  1.1426904e+00   4.0546760e-02
 -2.4570701e-01   4.1197866e-02
  3.0977851e-01   4.9554020e-02
  3.4055716e-01   2.9679865e-02
  1.8438956e+00   2.9231433e-02
 -1.5789485e-01   2.6122022e-02
  2.5363702e-01   5.6034755e-02
  1.1478648e+00   6.1680943e-02
 -2.0461792e-01   3.0599715e-02
  1.4511514e+00   5.0177697e-02
  2.1054536e-01   5.0161861e-02
  1.1102509e+00   3.0386299e-02
  3.1054133e-01   3.5740787e-03
 -1.6147739e+00   1.2893750e-02
  4.3681711e-01   4.8570070e-02
  1.9006535e+00   9.1663040e-03
 -2.1741619e+00   1.2744226e-02
  7.2549558e-01   3.0349005e-02
  2.2249499e-01   6.2137581e-02
 -2.7721873e-01   4.7123127e-02
  1.2757628e+00   2.6092254e-02
 -7.0456487e-01   3.4246214e-02
  1.7512470e-01   4.2821605e-02
 -7.5731802e-01   4.3833703e-02
  2.0328435e-01   7.0256330e-02
 -2.7000394e+00   4.4704038e-03
 -9.6692652e-01   3.6678772e-02
  3.0718005e-01   9.2126708e-03
 -2.6753683e-02   7.0852384e-02
  2.6621804e-01   5.2023608e-02
 -7.3592055e-01   2.4275001e-02
  8.3079100e-01   2.7685590e-02
  1.4410020e+00   1.8470142e-02
  1.7353319e-01   5.2827757e-02
  7.0222992e-01   5.5218287e-02
 -2.7160277e+00   1.6559130e-02
  5.9151852e-01   4.5288090e-02
 -1.2184886e+00   3.6431402e-03
 -3.9993688e-01   3.3117723e-02
 -1.1607948e-01   7.2027077e-03
 -4.7024608e-01   4.7205035e-02
  1.4159931e+00   3.2408122e-02
  6.8438429e-01   2.7621526e-02
  9.8411852e-01   8.2751974e-02
  8.9910716e-02   7.2575875e-02
 -2.8791410e-01   3.4474142e-02
 -2.2414355e-01   6.6379994e-02
  8.4246117e-01   2.2664752e-02
 -7.7081341e-01   6.0506694e-02
  7.8176194e-01   9.6969888e-02
 -1.5470756e+00   5.2593049e-02
  6.5327924e-01   8.6693741e-02
  1.3040960e+00   4.0982772e-02
 -3.7290908e-02   2.8381037e-02
 -2.4971198e-01   4.5832172e-02
  8.9798361e-01   2.0471871e-02
  9.0431929e-01   8.0352433e-02
  2.9181933e-01   7.3498800e-02
  1.1756909e-01   3.6198560e-02
  1.6538419e+00   8.3764717e-02
 -5.6377705e-02   1.0692764e-02
  4.1459596e-01   2.6167180e-02
  2.8737709e-01   4.9073871e-02
 -4.5484671e-04   5.0618820e-02
  6.7064482e-01   4.0042676e-02
 -1.4816831e-01   4.8936728e-02
  5.7576802e-02   3.4169480e-03
  2.7740872e-01   7.1881853e-02
 -8.3633110e-02   2.3087569e-02
 -9.6946490e-01   1.8478047e-02
  4.1266967e-02   1.7504310e-02
 -2.3155417e+00   1.5948597e-02
  4.6345085e-01   4.7269419e-02
 -6.2612557e-01   3.6877342e-02
 -1.1574123e+00   8.8960856e-02
  1.3738043e+00   3.5933286e-02
 -1.1305424e+00   8.4163599e-02
  1.7576562e-01   1.9821627e-02
 -4.1550335e-01   6.4068981e-02
  1.7179253e+00   8.5510481e-03
 -3.8444871e-01   4.0425844e-02
 -7.0046455e-01   9.8562956e-02
  1.1290997e+00   2.8163612e-02
 -3.4153003e-01   5.2958913e-02
 -8.6453879e-01   8.0717951e-02
 -1.5976517e+00   7.5800724e-02
 -4.1591465e-02   9.2958353e-02
 -2.7950969e-01   4.9400598e-02
  7.8045630e-01   4.6825171e-02
  1.2858396e-02   1.8259730e-03
 -5.9669954e-01   1.1368635e-02
  3.9266691e-01   3.2313764e-03
  8.1647378e-01   2.2665022e-03
 -9.5104170e-01   2.0206408e-03
  1.2737740e+00   6.2474882e-04
 -1.6454517e+00   4.9534766e-03
  7.8533038e-02   6.5439786e-03
 -1.6607217e+00   4.6485281e-03
  8.2292780e-02   4.1845534e-03
 -1.0374641e+00   2.3862612e-03
  4.2560115e-01   2.2110739e-03
 -1.6229889e+00   2.5252760e-03
  2.9251482e+00   9.2074824e-03
  8.4620112e-01   4.2461574e-02
 -2.1435657e+00   1.3383946e-02
 -2.1192358e+00   2.7467070e-02
  6.3434905e-01   4.3726582e-02
  1.0994583e-01   5.5263489e-02
 -1.4505142e-01   2.7035654e-02
 -1.5274507e+00   1.3033761e-02
  3.3390019e-02   1.4864578e-02
  9.7702670e-01   4.4484288e-02
  6.4724064e-01   3.3008020e-02
 -2.4365587e+00   2.5763445e-02
  3.0889215e+00   6.4983079e-03
 -1.5451254e-01   1.8030960e-02
 -7.7535617e-01   5.6457661e-02
  4.5012602e-01   8.2226787e-03
 -8.8489348e-01   1.9875690e-02
  1.2713660e+00   1.2403895e-02
 -1.8667102e+00   1.1803197e-02
 -1.2804011e+00   8.6093053e-02
  1.4675898e-02   3.9987434e-02
  1.8929322e+00   1.3608480e-02
  2.0647454e+00   7.8686094e-03
 -5.0329022e-02   2.1252798e-02
  1.5141463e-01   6.9022261e-02
  7.8481579e-01   9.5931180e-03
 -2.1395028e+00   5.6824614e-03
 -7.4233964e-02   3.2665145e-02
 -1.0728953e+00   4.4980310e-02
 -1.8245499e+00   2.3185536e-02
  2.7105805e-02   9.9112634e-03
  2.7467349e+00   2.2471603e-02
  1.0058330e+00   2.5499921e-02
 -3.2281524e-01   8.6058334e-02
  9.8014998e-01   2.6642140e-02
 -6.6552418e-01   1.1510877e-02
 -2.3976054e+00   2.5527379e-02
  4.4661197e-01   5.4722518e-02
  8.1395715e-01   1.8306881e-02
  5.1150813e+00   3.7064094e-02
  2.7216870e-01   2.2659261e-02
  2.2752528e-01   1.3880379e-02
 -1.9361472e+00   8.8957965e-02
  7.1764040e-01   5.3951491e-02
 -3.2215188e+00   4.0305715e-02
 -4.1679767e-01   1.5525466e-02
  2.7468013e-02   4.8014135e-03
 -6.2341207e-01   6.3144723e-03
 -1.1101394e+00   7.4142210e-02
 -2.7309191e-01   3.3562016e-02
  1.3768989e+00   6.8778833e-03
 -6.6801660e-02   9.9983200e-02
 -3.0791800e+00   1.9241182e-02
 -1.3058000e+00   2.6006529e-02
 -1.1400824e+00   2.8283915e-02
 -1.2147033e+00   3.0801676e-02
  9.6520849e-02   1.5619584e-02
  1.4309725e+00   1.7196156e-02
  1.5123782e+00   1.5461540e-02
  9.2637336e-01   8.3403938e-02
  9.1706783e-01   5.0515621e-03
  4.7135982e-01   5.4752704e-02
 -4.4087660e-02   5.6187607e-02
 -1.0984212e+00   3.3567652e-02
 -3.2239941e-01   1.7846111e-02
 -2.5388834e-01   7.0330938e-03
  5.3417715e-03   2.1295972e-02
  1.9877006e+00   1.2444031e-02
 -2.3269179e-01   6.3612878e-02
  1.2146727e+00   5.9930973e-02
 -1.2851279e+00   1.7748011e-02
  2.4292939e+00   2.8005006e-02
  6.4822942e-02   9.5369488e-02
 -1.0603104e+00   9.4571084e-02
  1.0550340e-01   6.3070118e-02
  4.1675109e-02   6.3755497e-02
 -7.9920031e-02   3.7279021e-02
  2.7806127e-01   7.8008339e-02
 -5.1867276e-01   9.3916608e-03
  7.0492309e-01   3.6874261e-02
  3.1573850e-01   7.1772218e-02
  1.8645112e-01   5.5355858e-02
 -3.0054554e-01   2.4527000e-02
 -8.8864434e-01   9.7126186e-02
 -4.8064966e+00   8.1864549e-03
  2.8422308e-01   2.0167565e-02
  1.2898860e+00   3.7062712e-02
  2.0484431e-01   2.0117752e-02
 -5.6177318e-01   3.7304625e-02
 -7.6248837e-01   5.4530196e-02
  3.5746309e-01   6.9981672e-02
  2.7385445e+00   2.7265796e-03
  8.4307846e-03   6.8108544e-02
  6.1445302e-01   4.1948389e-02
  2.1223340e+00   9.7709157e-02
  7.8864843e-01   4.5511961e-02
  4.4892009e-02   6.1324365e-02
 -7.0998394e-01   2.7284365e-02
  4.7677207e-01   2.5102831e-02
 -5.9930825e-01   3.8715620e-02
 -1.4203572e-01   2.5914835e-02
 -7.6286829e-01   5.7584543e-02
 -9.3521476e-01   4.0555999e-02
 -3.6120483e-01   6.7834161e-02
  1.1001846e+00   2.8623345e-03
 -9.5229691e-01   2.4469173e-02
  1.9814967e-01   5.9641477e-02
 -6.1646391e-02   7.7304460e-02
 -1.5879843e+00   2.6078742e-02
  5.4932243e-01   4.4515315e-02
  1.2848325e+00   2.0593876e-02
 -1.1950023e-01   5.8785316e-02
  4.2754808e-01   5.5569313e-02
 -1.4660456e+00   6.2866576e-02
  9.1743070e-01   5.0716143e-02
 -2.4561336e+00   1.0406602e-02
  3.4573025e-01   4.3444291e-02
 -1.9476829e+00   1.2406814e-02
 -7.4253082e-01   5.9702985e-02
  8.9173484e-01   7.6365352e-02
 -1.0207061e+00   8.2474872e-02
 -2.9796341e-01   1.4989428e-02
 -4.7076619e-01   6.9114044e-02
 -2.6358634e-01   5.1028602e-02
 -2.0452370e-01   5.1490597e-02
  2.0493083e+00   2.5436802e-02
  9.2383963e-01   7.6477677e-02
  8.5657388e-01   4.7386061e-02
  2.8635529e-01   1.8504824e-02
 -1.3019618e+00   1.6207807e-02
  2.2867996e-01   9.0722248e-02
 -1.9725390e-01   3.8619488e-02
  9.8522651e-01   2.9673235e-02
  9.5231688e-01   1.1409925e-02
 -8.1993032e-01   8.8334680e-02
 -1.1483736e-01   2.0897495e-02
 -1.6583690e-01   7.5642519e-02
  5.1895154e-01   6.8401039e-02
 -1.4988726e+00   3.5947975e-02
  9.8699045e-01   3.5629494e-03
  5.5965096e-01   9.5770486e-02
 -1.1547060e-01   4.5480140e-02
  6.5201604e-01   8.2930297e-02
 -8.6979783e-01   1.2466734e-02
 -7.2412723e-01   5.7379059e-02
  6.3364679e-01   4.4900671e-02
  6.3136065e-01   1.6264729e-02
 -9.2078263e-01   1.9849407e-02
 -2.4598141e+00   1.2375985e-02
 -1.8115442e+00   6.1438419e-03
  1.1769627e+00   6.3858973e-03
  7.5545102e-01   5.0896131e-03
 -2.9580826e-01   3.9547723e-02
  6.3077736e-01   6.2205296e-02
 -1.3561821e-01   5.0706249e-02
  1.7608398e+00   1.0962710e-02
  1.2368225e-01   1.4963674e-02
  1.9949789e-01   3.5395063e-02
 -3.9759818e-01   3.0436717e-02
  3.7044513e-01   5.1663127e-02
 -8.4036440e-01   3.9239429e-02
 -2.6555228e-01   4.5804758e-02
 -2.6780725e-01   7.0637912e-02
 -8.4967369e-01   2.9170725e-02
 -7.4834955e-01   2.9271565e-02
 -2.2660057e-01   9.0115800e-02
  8.6075002e-03   2.2924667e-02
  5.3120810e-01   1.1601878e-02
  2.7150209e+00   2.6491340e-02
 -3.0710420e-01   6.5282546e-02
  4.4493029e-01   4.1929387e-02
 -1.3764555e+00   8.0582770e-03
  3.4186184e-01   3.8844302e-02
 -1.2685633e-01   4.7305252e-02
 -9.6388474e-02   6.9148531e-03
  7.7217722e-01   3.2959126e-02
  1.5768814e-01   5.4612774e-03
 -3.0405369e-01   2.0162672e-02
  8.3097547e-01   5.0300691e-02
  6.3823694e-01   5.1357704e-03
 -8.1469893e-02   8.3460771e-02
 -4.1458648e-01   6.4225852e-02
  7.3732698e-01   4.6852525e-02
  1.0395448e+00   7.8597464e-02
  1.3062111e-01   8.9182839e-02
  8.4687245e-01   1.3538286e-02
  1.4095093e-01   8.6921975e-02
 -1.5000110e+00   3.1435911e-02
  8.9593387e-01   2.1165976e-02
 -1.2441248e-01   7.4154632e-03
 -1.4756384e+00   1.5418604e-02
  2.0672566e-01   5.5466633e-02
  1.8665427e-01   5.9104931e-02
 -8.0021963e-02   4.1568771e-02
  1.2251616e-01   8.1951767e-02
  5.9953344e-01   3.3460394e-02
 -1.7318520e-01   2.3272488e-02
  6.5882379e-01   5.8629051e-02
  1.8334565e+00   7.1081661e-02
 -6.0406398e-02   8.6929068e-02
 -1.0477128e-01   9.9542581e-02
  7.0537633e-01   1.9994756e-02
  5.6254607e-01   9.4264343e-02
 -8.8495767e-01   4.7521416e-02
  9.1121864e-01   7.9241939e-02
  7.5717524e-02   9.1383107e-02
  1.0860108e+00   4.7204118e-02
  2.2880440e+00   4.5679279e-02
  7.9575926e-02   8.2592601e-03
 -1.0390352e-02   5.0366692e-02
 -4.7322798e-01   3.5138957e-02
 -3.0156413e-01   2.1556271e-02
  3.7891969e-01   4.4827878e-02
 -2.0895155e-01   3.7315027e-03
  8.9386714e-01   3.5656378e-02
 -6.6511023e-01   8.1980132e-02
  9.5490873e-02   9.2655942e-02
 -6.9183201e-01   2.4921782e-02
  1.0244595e+00   8.0880143e-02
  1.6903834e+00   2.4369804e-02
 -8.1173271e-02   2.3309641e-02
 -4.3778348e-01   1.7030453e-02
 -2.0037658e+00   3.5130419e-02
 -3.7185386e-01   1.7635731e-02
 -2.6531837e+00   7.6025063e-03
  7.1510410e-01   9.6419521e-02
 -1.1511016e+00   3.0467827e-02
 -2.5535638e+00   1.8654665e-02
  9.0797879e-02   9.3750276e-02
 -1.6934624e+00   1.3102190e-02
  1.2060497e+00   3.1166157e-02
  1.0358320e+00   3.2103177e-02
  2.5270245e+00   1.3885212e-02
  9.3086042e-02   7.7631503e-02
  3.1067222e-01   2.3392254e-02
 -1.8407597e-01   7.1820870e-02
 -5.9745979e-01   2.8875342e-02
  9.6967059e-01   6.5868564e-02
 -1.3800287e+00   1.2757370e-02
 -8.2799703e-02   7.8192987e-02
 -4.7424064e+00   2.6410287e-02
 -2.3337054e+00   1.3337748e-02
 -8.5767396e-02   4.7484074e-02
 -4.3577561e+00   1.6516848e-02
  4.7893611e-01   5.5264357e-02
  5.3829712e-01   9.5906466e-02
  5.0962156e-01   2.4451472e-02
 -2.4075799e+00   2.5419978e-02
  7.0380741e-01   6.5064512e-02
 -8.8264257e-01   1.7972838e-03
  1.4122249e+00   2.2645844e-02
 -9.2774177e-01   6.9410026e-02
  3.6710358e-01   5.6682311e-02
  9.4086230e-01   1.5735034e-02
 -6.9052154e-01   6.0712011e-03
 -5.3281832e-01   6.2904567e-02
 -2.6078734e-01   2.8338835e-02
  5.1707882e-01   5.0696009e-03
  1.5302378e-01   2.6398117e-02
  1.2799539e-01   2.3030736e-02
 -3.5500747e-01   2.1554459e-02
  1.1115971e-01   6.4362019e-02
  7.4498206e-02   8.7995738e-02
 -6.6702569e-01   8.6413346e-02
 -9.5909452e-01   7.2129980e-02
  1.5151527e+00   6.7739822e-03
 -2.6174492e-01   7.6849170e-02
  1.0262921e-01   3.9177582e-02
 -1.0536489e+00   1.9942373e-02
 -3.4168077e-01   4.2151991e-02
  8.1309102e-02   3.0089837e-02
 -3.1429553e-01   3.8526133e-02
 -4.0490004e-01   5.4438792e-02
 -2.9275024e-01   5.6972437e-02
  8.7392932e-01   9.5801890e-02
  1.0394713e-01   1.8378630e-02
 -1.4477550e+00   7.9272412e-02
  1.7894398e-01   2.1006420e-02
  2.4133389e+00   1.6535722e-02
 -9.4486660e-01   1.8978748e-02
  3.8120812e-01   9.3922704e-02
 -1.4560117e+00   2.4048695e-02
  9.8057669e-01   8.8343568e-02
  4.6131194e-01   6.0597662e-02
  3.0127141e-01   5.6954049e-02
  1.5323925e-01   1.3152295e-02
 -7.6981771e-01   3.3801839e-02
  1.0567369e+00   5.2542794e-02
  5.3503655e-02   1.2385837e-02
 -8.7634635e-01   3.6098428e-02
 -1.0558238e+00   2.8908167e-02
 -3.2069553e-02   2.2431087e-02
 -7.2159630e-01   5.8854289e-02
 -4.1949609e-01   4.4508148e-02
  2.3230395e-01   1.9115698e-02
  1.3219843e+00   8.9851342e-02
  1.4699706e+00   4.7756411e-02
 -6.8528336e-01   9.2160635e-02
  7.2192270e-01   1.1898277e-02
 -1.0700383e-01   3.9763518e-02
  2.5269583e-01   6.1810389e-02
 -1.6582507e-01   1.2224299e-02
  1.8847938e-01   5.2904464e-02
  4.1731089e-01   8.4973603e-02
  1.0764498e+00   2.0429162e-02
  1.2390206e-01   1.6589507e-02
  2.5725400e-01   3.5812616e-02
 -1.3883394e-01   8.6063139e-02
  4.9399476e-02   3.4704864e-02
  8.2639736e-01   1.0250390e-02
  5.0627071e-01   6.2607601e-02
  3.5379642e-01   1.6835894e-02
  6.7279552e-04   3.2315392e-02
 -2.2170475e-01   3.0974409e-02
 -9.0297754e-04   2.0413574e-02
  6.7980015e-01   8.9524277e-02
 -2.2468069e+00   1.0380258e-02
  1.9012887e-02   7.8610197e-02
 -2.8791928e-01   1.7309412e-02
 -3.8429958e-01   9.9673113e-03
  1.2963524e-01   8.5109085e-02
 -9.6302435e-02   2.9772408e-02
  1.0086555e+00   8.5919127e-02
  7.6302998e-02   6.5214485e-02
 -1.2043274e-01   6.4181417e-02
 -9.9651390e-01   5.7057995e-02
  3.7739855e-01   7.3668165e-03
 -5.7988610e-02   2.4473917e-02
 -2.3309604e-04   1.2758277e-02
 -1.9380460e+00   8.5959524e-02
  1.4002067e+00   7.9901323e-02
 -2.2125925e-01   4.4131633e-02
 -1.7803745e-01   4.4245977e-02
 -6.1343014e-01   2.1193048e-02
 -1.8687774e-01   5.9521686e-02
  8.0109604e-02   1.1495203e-02
  1.4197077e+00   7.8581043e-02
 -4.5974752e-01   4.3075174e-02
  6.8830556e-01   6.8396062e-02
 -1.6893353e-01   7.8417465e-02
  2.7370873e-01   9.5437691e-03
  1.5575485e+00   4.7791582e-02
  3.1395859e-01   5.2800499e-02
  7.3533195e-01   2.6456224e-02
 -1.3345292e+00   1.9025786e-02
 -3.0428365e-01   8.7429367e-02
 -7.8710371e-01   5.6613620e-02
 -9.3059140e-01   3.9796721e-02
 -1.4871305e-01   4.2049710e-02
  2.6367090e+00   1.8959112e-03
  3.1734955e-01   4.0162340e-02
  6.5491855e-01   3.4534473e-02
  8.3844912e-01   2.7239893e-02
  4.5272209e-02   6.2754899e-02
  1.8439368e+00   3.6618769e-02
 -8.4355325e-02   9.5292546e-02
 -6.5977460e-01   4.5959529e-02
  3.8247895e-01   4.6183158e-02
 -1.9156197e+00   4.4811223e-02
 -5.2508807e-01   8.5051201e-02
  3.3824969e-02   3.3738881e-02
 -1.6983088e+00   7.1817197e-02
 -1.4729449e-01   7.6018184e-02
  1.4778904e-02   8.8131644e-02
  7.1722925e-01   6.2640138e-02
  2.0872866e-01   5.8755809e-03
 -1.7475228e+00   9.2074750e-03
 -5.2470010e-02   4.4678461e-02
  6.0125338e-03   4.1945182e-02
 -5.7582889e-02   3.1492826e-02
 -5.7096291e-01   3.2207973e-02
  1.9511294e-01   3.8397748e-02
  7.5749373e-01   2.8121511e-02
  2.0672929e+00   1.6899580e-02
  1.4418484e-01   2.5195995e-02
 -1.4147975e+00   1.2549861e-02
 -1.8273467e-01   4.6020810e-02
 -2.2132221e-01   2.5155950e-02
  3.2346883e-01   2.5383594e-02
  1.2402805e-01   1.9878037e-02
 -6.7512995e-01   2.3673680e-02
 -9.6660155e-01   8.1899777e-02
 -4.5774108e-01   3.6951065e-02
 -9.3877125e-01   3.5989530e-02
  6.4305985e-01   2.2252813e-02
  4.2459509e-01   8.6198211e-02
  2.4940738e-01   4.7488052e-02
 -1.3846737e+00   1.0000000e-01
  3.0043042e+00   4.5826384e-03
 -1.3591118e-01   9.7626746e-02
 -4.5552796e-01   5.8654271e-02
 -2.7394485e-01   7.6764666e-02
  3.4982413e-01   6.0813062e-02
  9.9767363e-01   5.6111440e-02
 -1.3089977e-01   3.0065980e-02
 -1.0042499e+00   6.3752863e-03
 -2.7000713e-01   2.0381903e-02
  2.5353640e-01   2.1169791e-02
  8.8814121e-01   2.6746456e-02
 -6.5056419e-01   2.7672749e-02
 -1.2707591e+00   7.2091103e-02
  2.7701345e-01   8.2722686e-02
  3.1550756e-01   2.2502471e-02
 -2.9154062e+00   4.1628074e-02
  5.4499739e-01   4.6786193e-02
  3.7473068e-01   7.9320315e-03
 -2.9489097e-01   8.1666946e-02
 -8.6025804e-01   2.2853540e-02
 -2.9645100e-01   3.5815824e-02
 -1.4722428e-01   8.6912692e-02
 -1.7522164e-01   2.7434524e-02
 -4.4709069e-01   1.2592516e-02
  1.3440865e-01   1.6429847e-02
 -3.6149411e+00   3.2185614e-02
 -2.3179526e+00   1.1114630e-02
 -6.0290940e-02   9.6876673e-02
  6.0824674e-02   4.4372786e-02
 -1.4445838e+00   7.2188899e-02
  2.8252442e+00   2.5456820e-03
 -4.0573016e-01   5.7618387e-02
 -1.3381751e+00   2.3582587e-02
  2.8602153e-01   4.1832335e-02
  7.5456750e-01   3.1241307e-02
 -2.8764924e-01   8.4411025e-02
 -1.5897791e+00   8.0326274e-02
 -1.1291516e+00   6.8440408e-02
  2.4244167e-02   3.1486351e-02
 -2.9129648e-01   2.6769208e-02
 -2.6362830e-01   7.4802250e-02
 -1.7839547e-02   1.5779341e-02
 -1.3233180e-01   2.0029379e-02
 -1.1892567e-01   2.4205377e-02
 -1.9607918e-01   6.2681176e-02
 -1.1585449e-01   4.5872677e-02
  3.3258992e-01   1.8749563e-02
 -9.6726179e-01   1.6162146e-02
 -7.2562754e-02   7.1509928e-02
 -1.3915620e-02   6.9580041e-02
  1.1488196e+00   7.5123623e-02
  2.2282331e-01   3.0668564e-02
  8.2605630e-02   7.9291299e-02
 -2.4426767e-01   8.1912614e-02
  1.0187756e+00   1.3730147e-02
  1.9217894e+00   2.3116032e-02
 -1.6369047e+00   3.3594150e-02
 -4.8452967e-01   5.4388285e-02
 -1.2779423e+00   4.5372751e-02
 -1.0855477e+00   1.2403980e-02
  9.9582756e-01   5.5348374e-02
  2.4439815e-01   4.3005999e-02
  3.3007047e-01   8.0587737e-02
  8.2705267e-02   5.4532498e-02
  1.6024175e+00   2.6227364e-02
 -1.4378501e+00   6.9336899e-02
  4.6942264e-01   2.8811127e-02
 -9.7270715e-01   6.3559473e-03
  1.6885517e+00   9.5074289e-02
  3.2941160e-01   4.5539849e-02
 -1.6772465e+00   2.1787517e-02
 -1.4512277e-01   3.5877131e-02