 -2.6470822e-01   4.2910818e-02
 -7.4406677e-01   4.6652909e-02
 -7.5510615e-01   8.7212987e-02
 -2.6357460e+00   8.7919667e-02
 -1.0990758e+00   7.1912177e-02
  3.4740536e+00   3.3440836e-02
 -2.8666776e-01   4.1532315e-02
  2.1661150e+00   6.6994004e-02
 -9.1912709e-02   4.7486540e-02
 -4.4967370e+00   6.8959855e-02
 -2.3445170e-01   6.4969547e-02
 -1.6389428e+00   6.6642687e-03
 -2.1663088e-01   6.4696826e-02
 -1.3782801e-01   5.2556347e-02
  1.8861605e+00   2.8279044e-03
  4.5377684e-01   5.8286890e-02
  4.6109325e-01   8.3111130e-02
 -8.4557265e-01   2.0806452e-02
  7.4569845e-01   9.1683500e-02
  2.3018830e+00   4.8980802e-02
  7.3614991e-01   2.0937230e-02
 -6.7175996e-01   7.1308985e-02
 -2.0045371e+00   5.3532545e-02
 -2.3749886e+00   6.2746033e-02
  1.1167209e+00   5.6344509e-02
 -1.8310603e-01   3.3491082e-02
  3.3273336e-01   9.8090455e-02
 -2.2328165e-01   6.6083029e-02
  8.2244217e-01   9.3737505e-02
 -9.3336308e-01   2.3749592e-02
 -6.7510076e-02   3.4317032e-02
  1.2482879e+00   6.0309414e-02
  3.2290466e-02   4.6049137e-02
  1.5249527e+00   6.8279140e-02
  4.8538423e+00   7.0731923e-02
  2.5787413e-01   6.2325157e-02
  7.6554841e-01   7.1691036e-02
 -2.0901857e-01   4.8046008e-02
 -1.8646982e+00   9.9139631e-02
  2.1297450e+00   8.1351005e-02
 -9.4707251e-01   9.3507133e-02
 -1.0269029e+00   9.8485395e-02
 -1.5168279e+00   6.1607007e-02
  6.3733119e-01   9.7072788e-02
  1.6423583e+00   5.9041739e-02
  1.5707046e+00   7.1060650e-02
  2.5518456e-01   1.0528814e-02
  1.1745007e+00   6.4787805e-02
  9.7646463e-01   9.3912244e-02
  6.5221317e-02   1.0000000e-01
 -5.3160465e-01   7.8190692e-02
 -1.9886391e-01   1.1754709e-02
  1.9468234e+00   6.9754362e-02
  2.1897541e-01   3.3597454e-02
 -2.1186197e+00   4.6962287e-02
  2.8274655e-01   8.2276911e-02
  1.1990316e+00   1.6594728e-02
  1.2959383e+00   8.4538005e-02
  2.7524204e+00   3.6664598e-02
  6.7893004e-01   3.3276193e-02
 -1.0872724e+00   8.6125501e-02
 -1.9652309e+00   9.3510389e-02
  7.3559302e-01   9.5915943e-02
 -6.0056651e-01   4.0769342e-02
 -1.2974015e+00   6.1333705e-02
 -2.5365775e+00   8.6505428e-02
 -1.6176742e+00   7.1194254e-02
 -3.2495975e+00   2.1698644e-02
 -1.0133687e+00   6.7824319e-02
  1.7887030e+00   4.9054015e-02
  2.1083555e+00   4.0218782e-02
 -1.3047681e+00   9.5652744e-02
  4.5746011e-01   5.8103871e-02
  3.1665006e+00   5.1294524e-02
  8.3757174e-01   1.8971147e-02
  5.8901377e-02   6.5233596e-02
 -2.5564408e-01   8.1008546e-02
 -1.6404536e+00   2.1880301e-02
 -1.4424869e-01   3.0328616e-02
 -3.3987117e-01   2.5314227e-02
 -2.6755004e+00   8.7644793e-02
 -1.1719855e+00   2.0645192e-02
  5.7128459e-01   7.6198339e-02
 -1.2634358e+00   5.2999947e-02
 -2.0380464e+00   4.8463590e-02
  5.4925375e-02   7.5482786e-02
 -4.9129212e-01   6.8251610e-02
  3.3652344e-01   8.2364067e-02
 -7.8268534e-01   7.4242055e-02
 -2.2698329e-01   5.3517517e-02
  3.7390079e-02   4.8467971e-02
 -1.8164633e-01   7.7554628e-02
 -8.1852883e-01   3.1887330e-02
  1.4463664e+00   7.7239402e-02
 -1.5835851e+00   2.1677690e-02
 -1.4469661e+00   3.2473505e-02
 -6.4644736e-01   4.0444266e-02
 -1.6961223e+00   8.4264129e-02
  1.4321589e-01   7.7218860e-02
 -1.1838050e+00   8.2646526e-02
 -5.0227714e-01   9.9111818e-02
 -3.0333327e-02   2.9055217e-02
  8.2175571e-01   7.2231546e-02
 -7.5213748e-01   4.9087312e-02
 -2.6633284e+00   8.7608516e-02
 -9.2977387e-01   3.4236077e-02
  5.1923060e-01   3.1239960e-02
  7.6918685e-01   5.9805691e-02
  1.1920458e+00   3.8675945e-02
 -2.4193687e+00   8.2493789e-02
 -2.0247667e+00   4.1790165e-02
  2.5317543e+00   8.3418377e-02
 -4.6222636e-01   7.8437492e-02
 -1.7201650e+00   3.3271760e-02
  1.4818887e+00   3.5286240e-02
 -7.1033669e-01   4.7456872e-02
  2.7560778e+00   7.2731130e-02
 -2.2408888e+00   7.1034424e-02
 -1.9268850e+00   5.2162699e-02
  4.9921042e-01   9.4313838e-02
  6.8661399e-02   7.7890277e-02
 -2.9663789e+00   7.1642436e-02
  2.1074879e+00   5.1224023e-02
 -1.0099262e+00   8.4009387e-02
  8.9403325e-01   6.7421831e-02
 -3.6671414e+00   6.0062643e-02
  3.3463705e-01   3.0427642e-02
 -2.6403446e+00   8.4571622e-02
  1.8094773e+00   5.3650420e-02
  1.1516552e+00   3.6746718e-02
 -2.6483652e-01   4.0229756e-02
 -1.3821899e+00   2.8964527e-02
 -3.1290169e+00   2.6508734e-02
  1.5460048e+00   3.7837248e-02
  1.5900873e+00   3.8109623e-02
  1.5660530e-02   3.1161150e-02
 -8.2369423e-01   1.7376903e-02
 -1.2865648e-01   6.8610907e-02
  1.3813711e+00   6.7470066e-02
 -1.1937495e-01   8.4501900e-02
  4.7820655e-01   8.6071260e-02
  1.0085540e-01   6.9841363e-02
 -2.4629211e+00   3.5242442e-02
  1.1653335e-01   7.7444144e-02
  5.1841587e-01   5.2165128e-02
  1.8099521e+00   7.2637275e-02
 -8.9178050e-01   8.0525808e-02
  5.2664798e-01   5.3783953e-02
  1.7743779e+00   3.3563003e-02
 -1.8037762e-01   6.5176770e-02
 -2.6134965e-01   2.6921479e-02
  1.1995125e+00   4.9073230e-02
 -1.1985776e-01   7.8099586e-02
 -3.4283135e+00   3.6746297e-02
 -6.3632631e-01   1.3175487e-02
 -1.2764400e-02   5.7114337e-02
  1.9027279e-01   5.8333706e-02
  2.3156998e+00   5.7584561e-02
  1.2117168e-01   4.0991802e-02
 -3.1214124e-01   2.5643528e-02
  1.8755839e+00   3.9315689e-02
 -2.5086982e+00   7.9686247e-02
  1.7562020e+00   5.9293903e-02
  3.0543704e+00   1.7728783e-02
  1.5256764e-01   9.1640837e-02
 -3.0397499e-02   2.5784766e-02
 -9.4122108e-04   2.7667569e-02
 -1.8967332e+00   6.2916316e-02
 -2.8931537e+00   6.3964523e-02
  3.3730883e-02   7.4396715e-02
 -6.8545854e-01   2.3317218e-02
 -1.9514109e+00   4.7490034e-02
 -2.6703594e+00   5.9040889e-02
  1.6846390e-01   2.3410423e-03
 -2.6257663e+00   2.0154407e-02
 -3.0280370e-01   3.3372965e-02
  6.8333143e-01   4.5442730e-02
 -1.6715122e+00   1.6382849e-02
 -1.4399256e+00   2.4178328e-02
  8.6165929e-01   4.3214377e-02
 -1.3280174e+00   3.4940850e-02
 -2.1189711e+00   3.6337208e-02
  3.4099478e-01   3.1300675e-02
 -1.6410946e+00   2.5363987e-02
  6.4594018e-01   3.3037584e-02
  1.1913480e+00   3.8602151e-02
 -1.9719045e+00   4.0000614e-02
  2.7615204e+00   8.2808256e-02
 -3.2189860e+00   4.4516977e-02
  2.4990898e-01   2.0093868e-02
 -1.9017581e+00   5.8058534e-02
  2.7262955e+00   7.6458193e-02
  3.8424575e-01   8.0174163e-02
 -8.0712736e-01   4.8488963e-02
  2.3107047e+00   5.0797995e-02
  2.0446353e+00   1.2117343e-02
 -1.4767028e+00   3.0222325e-02
  1.3413957e-01   4.6604816e-02
 -1.2001522e+00   5.4882824e-02
  2.6305392e-01   6.0606867e-02
 -1.6938279e+00   5.0466008e-02
  3.6422291e-01   5.5774417e-02
  8.4796590e-01   2.9433671e-02
 -2.6492682e-01   4.6812873e-02
  2.3679063e+00   4.2794514e-02
 -1.6850832e+00   3.1660765e-02
  3.8409117e-01   6.6705696e-02
  2.9632585e+00   2.5136584e-02
 -1.2140217e-01   6.2516101e-02
 -2.2136762e+00   5.7919254e-03
 -9.5541763e-01   2.9927053e-02
 -2.9851067e+00   7.6890640e-02
  1.3805495e-02   5.6559466e-02
 -2.9744751e+00   9.9925309e-02
 -1.1033509e+00   8.7115303e-02
  2.3395510e+00   3.4743857e-02
  7.1737993e-01   3.8850289e-02
 -3.6787149e-01   9.3613833e-02
 -3.1709011e+00   4.2031527e-02
 -7.0759034e-01   3.5937835e-02
 -2.1636524e+00   7.2154984e-02
 -2.7045086e-01   4.6820778e-02
  1.0048981e+00   5.3660057e-02
 -1.6747756e+00   9.6028224e-02
 -2.7018685e+00   3.9478593e-02
  1.7932907e-01   9.8790787e-02
  5.5333161e-01   4.6801072e-02
 -1.1803806e+00   1.5375871e-02
 -4.1611105e-02   5.3426966e-02
  2.0983618e-02   7.6634735e-02
  1.8192856e+00   4.4081416e-02
 -1.3702090e+00   7.4806161e-02
 -8.7696922e-01   1.6462106e-02
 -1.6043041e+00   5.9266079e-02
 -1.4052886e+00   8.8583626e-02
  2.7131901e+00   8.9397868e-03
 -3.4210458e-01   4.7508679e-02
  2.2464474e-01   3.0120881e-02
 -2.7849641e+00   2.3384040e-02
 -4.9054455e-02   2.2677017e-02
  9.9369180e-01   3.6689479e-02
  2.6561683e-01   1.8478248e-02
 -1.1262308e+00   9.6988864e-02
 -4.2631635e-01   3.3403229e-02
 -1.4301162e+00   3.8452212e-02
 -2.7752178e+00   4.3927442e-02
  7.1255612e-01   9.6460253e-02
 -1.3283932e+00   3.2054994e-02
 -3.5757502e-04   8.0605455e-02
  1.6893339e-01   9.1628730e-02
  3.4664512e-02   6.5727606e-02
 -4.9440661e-01   8.8901639e-02
 -1.0375872e+00   2.8312312e-02
  2.4093847e+00   3.0610835e-02
 -1.3780405e-01   4.1570865e-02
  8.9828521e-01   8.3725527e-02
  5.5554575e-01   9.3618743e-02
 -7.1427447e-01   3.0742180e-02
  1.3885683e-01   6.0175423e-02
 -1.1898913e+00   2.8014438e-02
  1.8702941e+00   1.6568428e-02
 -5.7678622e-01   6.6283949e-02
 -3.6906505e+00   8.0359295e-02
 -9.3697309e-01   3.2388978e-02
  1.3560636e+00   9.6944854e-02
 -9.8160195e-01   7.0205294e-02
 -1.8446171e+00   6.3872710e-02
 -6.2828982e-01   2.2091137e-02
  7.1908450e-01   6.4502820e-02
  2.0143008e+00   3.8555503e-02
 -6.9094551e-01   2.6054023e-02
  3.3395502e-01   6.8431146e-02
 -3.0554466e+00   3.2440607e-02
  3.4696645e-01   6.2758759e-02
 -1.2491558e-01   5.2227676e-02
  1.4121406e+00   6.1813276e-02
  2.7118881e+00   5.6066390e-02
 -1.6967037e+00   5.0181936e-02
 -2.6185899e+00   2.1008160e-02
  2.3545758e-03   2.4785491e-02
 -4.4642684e-01   8.3484113e-02
  3.2501512e+00   3.1472497e-02
 -1.9107780e+00   6.5626331e-02
 -7.1247681e-03   2.5628015e-02
  2.2420492e+00   6.6617131e-02
 -4.5559373e-01   8.0771334e-02
  2.2105577e+00   2.8493514e-02
 -1.3854821e+00   1.6509959e-02
  6.8070002e-02   3.5851493e-02
  1.4682225e+00   7.6136626e-02
 -2.1598290e-01   3.6445253e-02
 -4.6099219e-02   3.4910940e-02
 -3.3143777e-01   7.5801693e-02
 -2.0465651e+00   9.8032974e-02
  2.1130698e+00   8.4552027e-02
 -1.6493380e+00   3.6019124e-02
 -2.4593732e-01   9.6229695e-02
  5.3738225e-01   6.9798604e-02
 -3.8065892e-01   6.6133052e-02
 -4.4588917e-01   9.3314245e-02
 -2.7497027e+00   2.7540386e-02
 -4.2961922e-01   8.6724639e-02
  8.3526528e-01   4.1827820e-02
  2.7342024e+00   3.9338384e-02
 -8.8500279e-01   4.4806097e-02
 -5.5975385e-02   1.1307873e-02
  7.7002811e-01   7.3420182e-02
  1.1033034e+00   1.6252855e-02
 -2.0989001e+00   6.9341473e-02
 -1.3790624e+00   2.0406801e-02
 -9.8401600e-01   7.3646225e-02
 -6.7876929e-01   2.3433814e-02
  1.7455416e+00   8.4702134e-02
  2.6382918e+00   4.7742136e-02
 -2.8961092e-01   5.0205290e-02
 -1.2052523e+00   2.3019537e-02
 -1.1397194e+00   2.8894534e-02
 -2.0050676e+00   8.9053921e-02
  4.3694686e-02   4.0579848e-02
  3.8461580e+00   4.2183448e-02
  2.5277216e+00   6.8126991e-02
  2.7045999e+00   7.4537121e-02
  1.6732599e+00   9.3815170e-02
 -7.4181932e-01   7.2413199e-02
 -2.4163392e+00   4.5297112e-02
  2.5067845e-01   6.8052426e-02
  1.3317573e+00   7.5592697e-02
  4.6597487e-01   2.6064426e-02
  4.6008477e+00   8.7290540e-02
 -3.3049779e+00   2.6161855e-02
 -6.1543691e-01   3.4538321e-02
  7.9008475e-02   5.6261491e-02
 -2.5476921e-01   5.9367582e-02
 -5.9860796e-01   3.8451903e-02
  2.6631558e+00   2.1801455e-02
  3.0342534e+00   9.2340149e-02
 -1.3655480e+00   3.6646143e-02
 -4.8550731e-01   1.0000000e-01
 -7.7194351e-01   3.1697094e-02
  1.2887837e+00   7.5733237e-02
 -6.0121858e-01   5.0601028e-02
 -4.7403058e-01   3.5630919e-02
  3.2274112e-01   6.4850725e-02
 -3.8696679e-01   6.0781207e-02
 -2.0312557e-01   8.3009891e-02
  1.1978137e+00   4.6051398e-02
 -2.4354215e+00   5.5167239e-02
 -6.2908870e-01   1.9318927e-02
  2.3467851e+00   8.8221006e-02
 -1.3613563e+00   3.4431372e-02
  3.8349637e-01   9.2303455e-02
 -8.5888702e-01   3.2805290e-02
  1.4042261e+00   3.5240628e-02
 -1.0480136e+00   4.0088356e-02
 -2.5343246e+00   4.3010846e-02
  6.4471155e-01   2.0760380e-02
  2.2669852e-01   1.0000000e-01
  2.5673041e+00   7.9862081e-02
 -3.0559802e-01   7.9305328e-02
  2.2284689e+00   1.9057691e-02
  5.1819491e-01   3.0616719e-02
  1.1424798e+00   4.3157220e-02
  2.0502655e-01   3.4605976e-02
 -3.6243043e+00   7.8094222e-02
 -2.3081496e+00   4.4288460e-02
 -5.5123121e-03   7.6373734e-02
 -2.1353633e+00   8.3616316e-02
 -2.9458778e+00   1.0074425e-02
 -1.4154724e+00   5.4304693e-02
 -1.7565408e+00   9.6009783e-02
 -6.2608546e-01   3.1785965e-02
  1.1857004e+00   7.8188725e-02
  2.4353721e+00   8.9700110e-02
  3.0099599e+00   5.0423596e-02
  6.1897062e-02   5.2129824e-02
  1.0073794e+00   5.1093064e-02
 -8.1648886e-01   6.8587661e-02
 -9.1580075e-01   4.6104051e-02
 -8.6338603e-01   5.2735724e-02
 -6.5975964e-01   3.0211257e-02
 -1.5273540e+00   4.6385348e-02
 -1.0571603e+00   3.5713296e-02
  6.7190275e-02   7.3119715e-02
 -6.1341679e-01   5.4055903e-02
 -8.2769746e-01   6.6059880e-02
  2.7942985e-01   3.5326652e-02
 -8.8611042e-01   3.3540782e-02
  1.3242656e-01   1.4313512e-02
 -3.3918850e+00   1.8436622e-02
 -8.5087442e-01   8.6224481e-02
  1.6084270e+00   1.5112834e-02
 -1.6859581e+00   2.5381939e-02
 -8.4000474e-01   5.2960392e-02
  3.6643645e-01   4.0727030e-02
 -1.8355843e-01   6.9350943e-02
  1.8431685e+00   4.6008311e-02
  6.5854490e-01   5.2546617e-02
  5.5929404e-01   7.3190734e-02
  6.7348796e-01   5.9390504e-02
 -1.8057306e+00   6.8577945e-02
 -2.0938261e+00   2.3837330e-02
  5.6125051e-01   4.1136228e-02
 -2.9598132e-01   2.1542013e-02
  2.7473793e+00   4.5250610e-02
  8.3075261e-01   5.6792989e-02
 -3.6553326e-01   6.0818609e-02
 -4.5019287e-01   2.4175886e-02
  3.1934929e-01   3.4100674e-02
 -4.1979060e-01   4.3654248e-02
  1.5335782e+00   6.5284073e-02
 -2.1351800e+00   4.5582622e-02
  1.9310441e+00   7.2430752e-02
 -5.8834666e-01   1.3968972e-02
 -6.0410529e-01   6.0694888e-02
 -1.0023502e+00   8.4736263e-03
 -1.5870141e+00   4.8201904e-02
  2.3621598e-01   4.1176092e-02
 -2.1057737e-01   7.7329583e-02
  9.9385154e-01   5.9813865e-02
  1.6270953e+00   6.4988539e-02
 -1.1752684e+00   3.9557878e-02
 -9.8019946e-01   6.9954321e-02
 -1.7917645e-01   3.3288144e-02
 -1.4673516e+00   3.6901869e-02
  8.7464464e-01   9.8944455e-02
 -2.5268769e+00   7.8483373e-02
  6.1280268e-01   6.8793386e-02
  1.5786182e+00   9.9966645e-02
 -2.4116905e+00   4.3772805e-02
  2.2803559e+00   5.0907210e-02
  1.2467090e-01   5.5895939e-02
 -5.4576659e-01   9.0815999e-02
  4.1047326e-01   8.1470482e-02
 -4.5310649e-01   5.8389265e-02
 -4.0838405e-01   8.7064505e-02
  7.9970205e-01   2.5036331e-02
  6.5622169e-01   8.2366578e-02
 -1.9362190e-01   8.2639106e-02
 -5.0754279e-01   6.1279174e-02
 -8.8217402e-01   7.2924174e-02
  1.3246794e+00   3.8875058e-02
 -1.5872833e-01   2.2278797e-02
 -2.6865089e+00   8.0105200e-02
 -3.0820341e+00   3.8022473e-02
  1.2832740e-01   5.6794856e-02
  7.1152620e-02   1.9635441e-02
 -1.5712128e+00   4.4072554e-02
 -2.3940637e+00   5.9886653e-02
 -6.1370361e-01   8.1027582e-02
 -1.5592549e+00   8.4127612e-02
  1.7403123e+00   4.6030331e-02
  2.1869414e-01   2.5255553e-02
  1.5934919e+00   4.7932487e-02
 -1.7136381e+00   7.8187190e-02
  2.2572474e+00   2.2923822e-02
 -1.1495606e+00   2.3762625e-02
  1.9016762e+00   4.4304449e-02
  1.3970009e+00   4.0875599e-02
 -1.0256822e+00   2.6426394e-02
 -2.2818370e+00   9.3771741e-02
 -9.7892421e-01   8.0540746e-02
  4.8309189e-01   6.9515407e-02
 -2.1211016e-01   9.3077853e-02
  1.7762530e+00   8.2572266e-02
  7.8857683e-02   6.0885344e-03
 -1.0898777e+00   1.0821269e-02
  2.5282469e-01   6.8794782e-03
  9.3241888e-01   1.5099648e-02
 -8.9576393e-01   1.4496401e-02
  1.1902601e+00   2.7988299e-03
 -1.8629948e+00   4.7748466e-03
  1.2838560e+00   4.0234566e-02
 -1.0355172e+00   1.8168323e-02
  3.7010485e-01   3.6352783e-02
 -1.1168342e+00   1.1472589e-02
  6.4457291e-01   4.9188863e-03
 -1.8931695e+00   3.4606289e-02
  2.5511756e+00   5.2068047e-02
  1.7922885e+00   5.5045467e-02
 -1.7541075e+00   8.9223320e-03
 -1.4164072e+00   2.7272077e-02
  2.3824142e-01   5.9254006e-02
  5.8715826e-01   5.0078370e-02
  1.6135341e+00   4.1614674e-02
 -2.3566771e-01   2.0048264e-02
 -2.8754932e-01   5.1786296e-02
 -2.5311384e+00   7.8431219e-02
  4.0913263e-01   2.7991571e-02
 -4.0823822e+00   4.9336977e-02
  2.4690878e+00   2.7696306e-02
  4.8133299e-01   2.8145630e-02
 -1.8007224e+00   6.6240788e-02
  7.3577243e-01   2.8493475e-02
 -2.7669185e-01   1.8939523e-02
  1.2951170e+00   2.1726605e-02
 -1.5116847e+00   1.9388916e-02
 -9.9856406e-01   8.8935122e-02
 -1.3796022e+00   3.2214168e-02
  2.5399194e+00   3.3850837e-02
  2.0950799e+00   3.6256358e-02
  1.9533521e+00   5.7964016e-02
 -2.7098517e+00   4.8896182e-02
  7.2396481e-01   4.1951414e-02
 -2.4992979e+00   3.2726597e-02
 -3.2695748e-02   3.4560408e-02
 -3.9976063e-01   8.7025940e-02
 -1.0004747e+00   5.9805296e-02
 -7.0596057e-01   2.2353576e-02
  3.6260781e+00   6.5764055e-02
 -7.4082130e-01   9.5158473e-02
 -4.0688529e+00   8.4986277e-02
  1.6696808e+00   8.4193490e-02
  4.7807872e-01   3.6807925e-02
 -3.8796613e+00   1.6101062e-02
  9.2444974e-01   2.3136703e-02
  2.0739915e+00   3.2277592e-02
  5.8078732e+00   2.3869053e-02
 -3.5647285e-01   3.0888611e-02
  4.7392124e-01   3.3052258e-02
 -1.4237034e-01   4.0148247e-02
  1.7250184e+00   5.1658113e-02
  1.0076958e-01   5.6905393e-02
  3.2019648e-01   2.4404043e-02
  6.0897130e-01   5.8152229e-02
 -2.0523617e-01   5.5870749e-02
  1.4291219e+00   8.9444473e-02
 -1.2352133e+00   6.7755684e-02
  1.5569201e+00   4.5015842e-02
 -1.8006863e-01   4.4797648e-02
 -4.3367290e+00   3.4287348e-02
 -2.8919320e+00   2.9419146e-02
  4.5284936e-01   4.1045722e-02
 -1.1682911e+00   8.1114545e-02
  1.4421780e-01   3.9278962e-02
  1.8912482e+00   7.3815711e-02
  2.6085370e+00   3.5267022e-02
 -2.9278266e-01   5.5236094e-02
  1.0369631e+00   2.1849815e-02
 -3.5745913e-01   5.6609973e-02
  1.6437062e+00   8.2990535e-02
 -2.5274484e+00   7.8231871e-02
 -1.8826849e+00   3.5143346e-02
 -6.0537569e-02   3.2218937e-02
  1.2557096e+00   9.3912020e-02
  1.1740026e+00   7.8253942e-03
 -2.1351205e-02   5.1218577e-02
  4.4865733e-01   4.2605557e-02
 -2.9862326e-01   5.8383949e-02
  3.5261216e+00   3.3095781e-02
  1.8749403e+00   8.3512431e-03
 -2.7028208e+00   7.5302899e-02
 -1.9499539e+00   6.8072759e-02
 -2.1271453e+00   8.8216618e-02
  1.4353453e-01   5.7261862e-02
  6.3974339e-01   7.4663714e-02
 -2.2851079e+00   2.6006015e-02
  2.7943163e+00   2.6982801e-02
 -4.7553544e+00   5.3304922e-02
 -4.2183580e+00   3.8217593e-02
 -3.4069371e+00   2.9142993e-02
  1.0509729e+00   9.7864866e-02
 -4.5477571e+00   1.8238826e-02
 -6.3826418e-01   4.0704802e-02
  1.2521764e+00   4.7297295e-02
 -2.9932785e-01   6.2489547e-02
  4.2147788e-01   5.7098579e-02
  1.9722124e+00   9.8062754e-02
 -1.1682154e+00   8.5706577e-02
  2.5767717e+00   1.1912953e-02
 -3.1117150e-01   8.0314957e-02
 -6.2557781e-01   1.8978395e-02
  2.6169951e+00   9.2807025e-02
 -1.8944634e+00   4.8261639e-02
  7.4203175e-01   7.7038243e-02
 -3.5503294e+00   7.7542812e-02
 -1.1954198e-01   8.6733997e-02
 -2.7143831e+00   3.2237962e-02
 -9.9744731e-01   4.4879526e-02
 -2.7151372e+00   2.2517899e-02
  2.9636190e+00   8.3719321e-02
  3.0495001e-02   6.3560359e-02
 -2.5864241e-01   3.3083010e-02
 -1.0315810e+00   1.2634804e-02
  6.1580658e-01   9.6503720e-02
  1.4318113e+00   1.0803709e-02
 -2.0120929e-01   2.2267945e-02
 -2.5850987e+00   6.8264827e-02
  6.5415257e-01   3.7609503e-02
  7.9853016e-01   4.6949681e-02
 -5.9304142e-01   5.8425974e-02
 -1.3254030e+00   7.9071224e-02
  1.4323229e+00   6.4224020e-02
 -2.4900501e+00   3.8638931e-02
  2.0743933e+00   8.7963082e-02
 -2.4070816e+00   3.8069636e-02
 -2.8818495e+00   4.0194102e-02
  3.1127041e-02   6.9415934e-02
 -6.5196478e-01   8.2672454e-02
  9.7495444e-02   2.3198949e-02
 -4.0685043e-01   7.9773642e-02
  1.2336078e-01   3.7869558e-02
  2.0951684e-01   7.1514137e-02
  1.1231004e+00   2.6659137e-02
  3.2839725e+00   3.3251304e-02
  1.1872801e+00   2.7133113e-02
 -2.0008450e+00   6.9211334e-02
  9.1229343e-01   6.0547154e-02
 -7.2172523e-02   3.5028972e-02
  3.4464291e-01   9.4082899e-02
 -1.8728864e-01   4.5864768e-02
  2.0361738e+00   6.6617943e-02
  8.0118352e-01   5.1100831e-02
  1.3006128e+00   3.5660349e-02
  1.2483207e+00   6.9778532e-02
  2.5084982e+00   8.0209114e-02
 -1.7502128e+00   4.7869060e-02
  9.4103813e-01   9.8133618e-03
  9.7583783e-01   9.9243887e-02
  1.2809783e+00   5.5685405e-02
 -5.4813522e-01   2.6599111e-02
 -9.0663522e-01   1.8146608e-02
  1.8087127e+00   8.3904453e-02
 -1.4016088e+00   9.7809501e-02
  2.0302982e+00   2.1076078e-02
 -1.2445483e+00   2.6549539e-02
 -1.1605026e+00   3.4512702e-02
 -1.2749434e+00   2.1934345e-02
  2.7535447e-01   7.4153394e-02
  7.7200288e-01   1.4221406e-02
 -7.3051244e-01   6.9848977e-02
 -2.3222969e+00   5.3157452e-02
 -2.7709219e+00   8.6494580e-02
  2.3731005e+00   7.4208383e-03
 -9.6213591e-01   4.7188405e-02
  2.1939192e+00   7.3619612e-02
 -4.0057218e-01   6.3802436e-02
  9.2170447e-02   3.7476767e-02
 -3.2533858e+00   5.8473669e-02
 -9.8191631e-01   5.7715412e-02
 -4.2929322e-01   9.1510788e-02
  9.1998605e-03   2.1280706e-02
  3.5068509e-01   8.3608046e-02
 -6.3798085e-02   8.4553756e-02
 -1.4867246e+00   3.7346900e-02
  1.1582541e+00   2.5021987e-02
  3.6261210e+00   2.4410628e-02
  2.0069189e+00   3.3318199e-02
  1.5070426e-01   5.0020672e-02
 -1.3235210e+00   1.8031826e-02
  2.1883573e-02   3.4467965e-02
 -1.0360011e+00   4.2248700e-02
  6.7689258e-01   2.1985572e-02
  1.3010865e+00   2.9477909e-02
  3.2947928e-01   2.3710994e-02
 -1.1491265e+00   2.7359273e-02
 -8.3089024e-01   5.7410762e-02
 -2.0062372e-01   2.2543510e-02
 -2.0462428e-01   7.1390569e-02
  3.3795447e+00   5.0445739e-02
  9.9069792e-01   5.6632958e-02
  1.1764251e-01   9.3713477e-02
  1.0489541e-01   9.0828314e-02
  2.1089858e-01   7.6280639e-02
  1.1188848e+00   5.1466472e-02
 -1.5836883e+00   3.8283784e-02
  8.2190621e-01   2.9029310e-02
 -2.5698742e-01   2.1107730e-02
 -2.2917511e+00   6.2516697e-02
 -3.1720904e-01   9.4356865e-02
  8.2830840e-01   3.7304394e-02
  1.2609333e+00   3.0605853e-02
  3.4857175e-01   4.2821154e-02
  2.3389356e+00   3.0461468e-02
 -9.9326879e-01   4.5234524e-02
  8.5906857e-01   8.4339403e-02
  3.0303674e+00   2.9095624e-02
 -1.4946486e+00   9.6517444e-02
 -2.6253811e-01   9.3368217e-02
  7.7178262e-02   5.2824128e-02
 -1.3043079e+00   7.1070604e-02
 -2.9163256e+00   5.3402904e-02
  8.9475417e-01   7.9438671e-02
  1.7437106e+00   1.3526318e-02
 -8.1525671e-01   8.5478477e-02
 -6.5930742e-03   4.9826711e-02
 -6.6877025e-01   3.3982500e-02
 -5.5798084e-01   7.7270187e-02
 -2.3760445e+00   5.4155305e-02
  2.6148083e+00   5.0112970e-02
  7.4904269e-01   9.3461126e-02
 -1.2193516e+00   4.5336854e-02
 -1.3648517e+00   9.5016837e-02
 -1.9960136e+00   3.5439130e-02
 -4.6760368e-01   9.4893187e-02
 -2.0712087e+00   4.3580465e-02
 -2.9515224e+00   3.3747751e-02
 -4.2769995e-01   5.3066842e-02
  1.2673962e+00   7.7679329e-02
 -2.8325585e-01   3.4495704e-02
 -3.2434096e+00   4.9490601e-02
  9.6304250e-01   3.6799625e-02
 -3.5589540e+00   2.6852841e-02
  7.1174890e-01   4.2318340e-02
 -8.0500007e-01   3.9574403e-02
 -2.5269370e+00   1.2891144e-02
  6.7977321e-01   8.5886784e-02
 -1.2980633e+00   2.0611573e-02
  4.1873598e+00   1.9213483e-02
 -8.3542991e-01   7.0489183e-02
  3.1073589e+00   2.8618475e-02
 -1.7580335e-01   7.5305112e-02
  9.0097541e-01   6.1622087e-02
  3.5310235e+00   5.6332685e-02
  1.5876606e+00   7.7011801e-02
 -1.3761741e+00   2.8760722e-02
 -2.8400990e-01   3.0259425e-02
 -5.9834715e-02   9.2057809e-02
 -4.1883059e+00   1.9933030e-02
 -2.2644134e+00   6.4521387e-02
 -8.7261856e-01   7.4734859e-02
 -4.8704901e+00   4.5202378e-02
 -3.5942197e-01   9.2302151e-02
  1.8007376e+00   8.0445610e-02
 -1.5683810e+00   3.9785929e-02
 -4.0652142e+00   4.3861359e-02
  3.0644379e+00   8.0377802e-02
 -9.9447978e-01   2.4641402e-02
  1.2022740e+00   2.6422041e-02
  5.2747434e-01   3.5693225e-02
 -1.0419298e+00   3.2466773e-02
  1.5071607e+00   5.3905785e-02
 -3.7691209e-01   8.3302120e-03
 -1.9349687e+00   8.6139709e-02
  3.6309028e-01   9.3753263e-03
  4.2590219e-01   1.8328717e-02
  1.9361429e+00   1.6715087e-02
  2.1340048e+00   8.1222475e-02
  1.8190257e-01   2.4163647e-02
 -1.6709769e+00   7.6210640e-02
 -3.5592196e+00   6.3491732e-02
 -1.2779399e-02   8.9243010e-02
 -1.9181973e+00   1.0000000e-01
  6.8236047e-01   2.2706317e-02
  2.0596569e+00   8.2404666e-02
 -7.3570693e-01   5.1438358e-02
  3.2589370e-01   3.0490335e-02
  1.6783569e-02   5.6473721e-02
 -1.9091630e+00   7.1080789e-02
  1.7869172e+00   3.6140457e-02
 -7.8006476e-01   7.4803263e-02
 -2.7877357e+00   8.6405436e-03
 -1.9355671e+00   8.2895048e-02
 -1.4482172e+00   2.1742709e-02
  3.3562058e-01   7.6649509e-02
  1.3252481e+00   3.8788218e-02
  2.4446685e+00   3.2975066e-02
  3.0540034e-01   3.0864099e-02
  3.6738747e-01   7.0811115e-02
 -1.4250169e+00   2.0078838e-02
  2.8249061e-01   3.7849925e-02
  1.6867309e+00   6.0853679e-02
  7.4055445e-01   9.4728000e-02
  1.7318791e+00   5.4870106e-02
  8.5110706e-01   2.8895732e-02
 -4.9461823e-02   5.2347753e-02
 -8.7986165e-01   2.4335587e-02
 -2.3611388e+00   2.2298321e-02
  1.6569352e-02   7.4444368e-02
 -1.7307160e-02   2.4592219e-02
 -1.3686340e+00   8.9058511e-02
  8.8059431e-01   8.5725158e-02
 -1.2880456e+00   7.5385399e-02
  2.3108060e+00   4.9286500e-02
  1.3200793e-01   8.9843161e-02
 -8.1267893e-01   3.6412615e-02
  3.3318871e-01   6.5531626e-02
 -8.5835224e-01   2.5861437e-02
 -1.3011906e+00   8.5155293e-02
  2.5910234e-02   1.6669149e-02
 -1.7462783e-02   5.4644432e-02
  9.7708571e-01   8.6825989e-02
  1.7090166e+00   3.6587346e-02
 -4.4838580e-01   5.9899628e-02
 -4.9655833e+00   6.6656925e-02
 -1.4756401e+00   6.0893051e-02
  8.8806403e-01   7.8475498e-02
  6.4132893e-01   7.6060936e-02
  1.7154697e+00   8.3278120e-02
 -3.3801658e+00   4.1144054e-02
  1.7476265e+00   5.1189058e-02
  6.6915625e-01   5.9698071e-02
  8.8568258e-01   3.2982018e-02
  2.9916999e-01   8.6369917e-02
 -1.9998896e+00   1.4518808e-02
  1.6057500e-01   7.4584484e-02
 -4.1741508e-01   4.7328379e-02
 -2.5632754e-01   1.1361584e-02
 -1.8052524e+00   6.6167727e-02
 -4.0957382e-01   1.4526837e-02
  1.9607982e-01   9.2000797e-02
  3.9438897e-01   6.1156258e-02
 -8.4254670e-01   6.8059191e-02
  1.5789656e-02   8.5055836e-02
  9.1483665e-01   1.6551709e-02
  6.8224800e-01   5.2820221e-02
 -3.7481721e-02   6.5175511e-02
  9.4028950e-01   5.0557535e-02
 -5.3872237e+00   7.6399997e-02
  7.9438716e-01   7.4356601e-02
  3.8609934e-01   4.3530758e-02
  6.0570407e-01   7.4479945e-02
  4.3999153e-01   6.3884765e-02
  4.3073088e-01   9.0501949e-02
  3.9556935e-01   6.5251440e-02
 -3.3219731e+00   4.3126650e-02
  2.6051562e+00   7.4425019e-02
 -3.9938939e-01   5.5721041e-02
  1.5448029e-01   3.2240655e-02
  3.0020146e+00   2.5732795e-02
  3.1362486e-01   9.4443314e-02
 -1.6201979e-01   5.5096753e-02
 -2.9780967e+00   3.6561470e-02
 -1.3652916e+00   8.3137728e-02
 -1.5255979e-01   5.2187122e-02
 -2.1418097e+00   8.3697006e-02
  1.9289641e+00   3.6650639e-02
  3.0884874e+00   1.0829543e-02
 -1.8247714e+00   6.1887149e-02
 -9.7139680e-01   4.2385183e-02
 -2.1354980e+00   9.5765077e-02
 -4.6072879e-01   5.1755048e-02
  1.6559126e+00   3.2694917e-02
  1.2311546e+00   5.0857984e-02
  1.3273875e+00   1.0000000e-01
 -8.4931070e-01   2.6233818e-02
 -2.3735518e+00   3.1695064e-02
  2.3955107e+00   7.1283363e-02
  6.4917274e-02   4.0613398e-02
 -2.8228071e+00   2.0613575e-02
 -1.5460548e-01   9.5516458e-02
  1.3232758e+00   3.1164251e-02
 -7.7721268e-01   9.6661031e-02
  9.4628727e-01   2.2025777e-02
 -1.9512889e+00   1.8094070e-02
 -8.3724044e-02   5.4911077e-02
 -1.9908800e+00   7.0662662e-02
  6.8629700e-01   4.4832487e-02
  1.3968209e+00   8.2445845e-02
  6.4522970e-01   9.6657000e-02
 -8.9274728e-01   6.9973156e-02
  1.6557105e+00   3.4827583e-02
 -2.3600449e-01   3.6454521e-02
 -1.5804973e+00   3.7663881e-02
  2.0304723e+00   6.2169351e-02
  3.3644265e-01   4.6052899e-02
 -1.0595499e+00   7.5562522e-02
  4.2771278e-03   5.1078185e-02
  1.4412928e-02   7.4498631e-02
 -1.9087560e+00   5.3579003e-02
  1.7399006e+00   3.5398874e-02
  1.2094016e+00   3.3965621e-02
 -1.3522768e-01   8.1240825e-02
 -6.1536986e-01   7.2279721e-02
  7.2248840e-01   6.9567315e-02
  1.1738211e+00   7.3374338e-02
  3.0011280e+00   1.8249866e-02
 -1.1005981e+00   9.3279652e-02
 -1.0041456e+00   5.3340025e-02
 -1.5442929e+00   7.8136608e-02
 -6.8266004e-01   5.8933895e-02
  1.5125849e+00   3.3271294e-02
  9.1393811e-01   9.6027248e-02
 -1.5513195e+00   2.0089323e-02
  6.8840688e-01   5.7640299e-02
 -5.9113955e-01   8.7011494e-02
 -4.0491399e-01   5.3701792e-02
  3.4157881e-01   4.2576291e-02
  1.9569950e-02   5.0662685e-02
  2.4643302e+00   3.2346867e-02
 -1.3335954e-01   6.1488636e-02
 -4.8501492e+00   4.7468197e-02
  3.6271411e-01   5.8413677e-02
 -8.9953728e-02   3.1254001e-02
  3.0936682e-01   9.8716050e-02
 -8.8664830e-01   2.7432546e-02
  3.5536320e+00   5.0199926e-02
 -2.4198820e-01   8.2257584e-02
 -2.6264895e-02   4.7982059e-02
  2.8637010e-01   3.5385530e-02
 -4.8021200e-01   6.9674879e-02
 -4.2273383e+00   4.5549016e-02
 -2.2402582e+00   4.7101419e-02
 -5.5987281e-01   9.4710723e-02
  1.4782115e+00   4.9408682e-02
 -6.4381748e-02   6.0366329e-02
  2.9002838e+00   1.1142850e-02
 -3.0699282e+00   7.6072603e-02
 -1.6009856e+00   2.6419360e-02
  3.9094737e-01   2.9550817e-02
  3.5026404e-01   3.3576284e-02
  1.4792488e+00   6.4561732e-02
  1.8764237e+00   8.4630579e-02
 -1.9854951e+00   6.7803182e-02
 -2.9947231e+00   9.0904832e-02
  8.6601394e-01   3.7443783e-02
 -1.7107042e+00   8.0719322e-02
 -4.1117129e-01   2.6805818e-02
 -4.0441415e-01   6.3847087e-02
 -5.7667983e-01   4.9408730e-02
 -3.2300162e+00   6.3086212e-02
 -1.3091115e+00   2.6873752e-02
  7.9451936e-01   3.9006017e-02
 -2.0894492e+00   2.2804486e-02
 -5.1058769e-01   5.8621474e-02
 -9.2813039e-01   5.0894037e-02
  2.7646260e+00   6.1862186e-02
  3.8090569e-01   1.0000000e-01
 -7.7363837e-01   8.1431352e-02
 -7.7575408e-02   6.2568836e-02
 -1.5489222e-01   2.6404390e-02
  1.0047154e+00   1.9979868e-02
 -2.5662580e+00   9.9616244e-02
 -2.1758680e+00   9.6921101e-02
  6.5819126e-01   6.5063708e-02
 -7.1094644e-01   3.6342740e-02
 -2.7419183e+00   9.6262299e-02
  1.9109796e-01   8.2505129e-02
 -1.0489060e+00   5.8046728e-02
  1.3348498e+00   6.5349676e-02
  1.3463514e+00   1.2262143e-02
 -1.9449364e-01   7.6075286e-02
 -5.2995950e-02   7.4695922e-02
 -5.5769712e-01   1.3811934e-02
  1.7559473e-01   7.9118967e-02
 -1.5527114e+00   2.6391730e-02
 -5.0925595e-01   7.2574370e-02
 -8.1705517e-01   6.3829154e-02