 -4.2269696e-02   8.5173016e-03
  5.8349955e-01   5.7112584e-03
 -1.6108237e-01   2.9444573e-03
 -1.0231412e-01   1.8086769e-02
 -4.9241614e-01   4.8954634e-04
 -3.0555731e-01   1.6930046e-02
  2.8727755e-02   1.6226597e-02
  3.7422279e-01   3.7214030e-02
  5.3101793e-02   5.4374286e-03
 -6.8213232e-02   2.5499322e-02
  7.2143916e-03   3.1759731e-02
 -2.8185207e-01   3.3017609e-02
  3.6813951e-01   4.5535952e-02
 -1.5071255e-01   6.9306963e-03
  1.9330451e+00   2.8615579e-04
 -8.0332741e-02   4.9702119e-02
 -1.2427883e-01   2.8380739e-02
 -5.8405101e-01   1.0708468e-02
 -7.6832540e-02   9.9183433e-02
  3.3982560e-01   1.9379057e-02
  5.2952111e-01   1.2510399e-02
 -1.9124396e-02   7.1660697e-02
  1.4594105e-02   2.3671950e-03
  1.3130919e-02   2.5978586e-02
  6.2370157e-01   8.1751734e-02
 -2.2584464e-01   8.3936164e-03
  5.9479624e-01   5.8261398e-02
  2.3064972e-01   8.4131043e-03
  4.0068808e-01   3.4199618e-02
  5.1835895e-01   2.5111653e-02
 -1.0607747e-01   4.5910582e-02
 -1.2506542e-01   1.1540527e-02
  3.1455633e-01   2.5445090e-03
 -6.6720555e-03   1.8076187e-03
  1.4707694e+00   1.6031470e-02
  2.9134122e-01   2.4733646e-02
  6.8562067e-01   2.5228180e-03
 -1.1817945e-01   4.3174173e-03
  2.7833486e-01   1.8707801e-02
  2.2341512e-02   9.5793856e-03
 -2.1293356e+00   1.7246716e-03
 -8.8229483e-01   1.2242217e-02
 -1.1001078e-02   3.0435313e-02
  6.5768832e-01   2.6384050e-02
 -5.4288286e-01   3.9977748e-03
  2.1891072e-01   1.2297982e-02
 -9.6907467e-02   5.1463288e-03
  2.2638352e-01   5.5596870e-03
  9.2700291e-01   6.6919096e-02
 -8.9538902e-01   1.5408536e-02
 -2.2038960e-01   3.2797553e-02
  8.7212794e-02   4.6214998e-02
  1.8711470e-01   4.1197069e-02
  6.9914654e-02   1.8758894e-04
 -4.7012088e-01   4.9784146e-03
  1.9605054e-01   3.2832764e-02
 -5.7906759e-01   8.2026407e-02
 -1.6840917e-01   2.2589361e-02
  2.4885151e+00   1.7595116e-02
  1.2826042e-01   1.7968880e-02
  1.1172722e-01   1.3158147e-02
 -2.8491870e-01   8.8918515e-02
 -3.3544022e-01   7.0674783e-03
  3.7899873e-01   1.4287809e-02
 -1.6927882e+00   2.4743652e-04
 -5.7990146e-01   6.0775504e-03
  3.4720607e-02   7.1539677e-04
  6.8008864e-01   3.5113063e-02
  1.7318557e-01   8.8482276e-03
  9.5496786e-01   6.3435910e-03
 -1.7673889e-01   6.3370571e-02
  2.8670773e-02   5.9099890e-02
  5.1589614e-01   5.4289933e-02
  4.0344256e-01   6.7805700e-02
 -1.4856364e-01   2.4525877e-02
 -4.1387743e-01   1.6836636e-02
 -4.4426464e-02   3.3453717e-03
 -1.0367914e+00   2.8324695e-03
  9.3779050e-02   1.9317057e-02
 -2.5433692e-01   3.8080126e-02
  2.2513966e-01   4.4707835e-02
  3.1875876e-01   3.3364855e-03
 -1.5890567e-01   2.5543235e-02
 -1.4747474e+00   3.7218425e-03
 -2.3311000e-01   2.6344769e-02
 -3.1574991e-01   2.1805102e-02
  7.1628338e-01   8.0393150e-02
 -1.0116315e-01   3.5311341e-02
 -3.2289588e-01   7.1284380e-03
 -1.8835552e-01   5.9109170e-02
  3.8208535e-01   1.3059998e-02
  3.8215585e-02   8.8044638e-03
 -1.9774181e-01   1.1664433e-02
  9.1222869e-03   2.3769181e-02
 -1.0227893e-01   1.9677810e-02
 -8.5204208e-01   5.6184735e-03
  4.6294689e-02   4.1553494e-02
  4.9899563e-02   3.4556676e-02
 -8.2203917e-02   3.2816283e-02
  1.1060209e-01   2.0845829e-02
  4.7633003e-02   4.4821901e-03
 -1.2019467e+00   1.3052585e-03
 -3.1907341e-01   4.8399609e-02
 -1.7936511e-02   9.3824640e-03
 -9.7801328e-02   3.3798136e-02
 -3.3260277e-01   7.7023223e-04
 -2.8060642e-01   4.0160749e-02
  5.1176388e-02   5.7209168e-02
 -8.3520792e-02   4.5147900e-02
 -3.6584577e-01   1.7456437e-03
  3.0523059e-01   1.3604426e-02
  1.0526590e+00   4.5859418e-03
 -3.2109946e-02   4.1599432e-03
  3.7362614e-01   7.2534651e-02
 -4.7915247e-01   4.2181443e-03
 -2.5878623e-01   1.7049959e-02
  1.8259482e-01   1.7579362e-02
 -3.9856616e-01   1.9365553e-02
  2.0481072e-01   5.4565319e-03
  8.9583181e-02   6.0844332e-02
 -4.2763527e-02   8.7268420e-02
  2.0848657e-01   2.2500111e-02
 -1.3658041e-01   6.3576974e-02
 -6.8559624e-02   2.3625482e-02
 -6.5452707e-01   7.2719418e-03
 -1.0733237e+00   1.0153168e-03
  8.1675190e-01   7.5419797e-03
 -3.9770451e-01   1.6609514e-02
 -1.0103749e-01   2.5772210e-02
 -1.5573683e-01   2.9327227e-02
  7.4809676e-01   7.1053463e-03
 -8.4442973e-01   6.5606483e-03
 -3.7468898e-01   3.5744630e-02
  7.4895960e-01   2.9499233e-02
  3.9137140e-02   6.0771786e-02
 -1.3205510e-01   4.6081804e-03
 -1.2730640e-01   2.2717487e-02
 -9.0199195e-02   1.7691287e-03
 -2.4833350e-01   2.8363285e-03
 -7.6273680e-01   2.5187692e-02
 -2.3043062e-01   3.8176902e-02
 -6.1551005e-01   6.7195773e-02
 -2.8785008e-01   8.2996180e-03
 -2.3503529e-01   6.2029257e-02
  1.0983486e-01   2.1451751e-02
 -3.4466267e-02   6.7415242e-03
  3.3783990e-01   4.3158922e-02
 -7.0222479e-01   7.3380885e-04
  7.5420916e-02   8.8298090e-02
  4.5835537e-01   3.7340607e-02
 -7.1516728e-01   4.6819653e-02
  3.6459461e-01   1.8023638e-02
 -2.7736655e-01   4.1451201e-02
 -9.8321718e-01   1.6857291e-02
  1.6459101e-01   7.0722686e-04
 -1.0936372e+00   2.1386219e-02
  4.4498086e-02   4.7376789e-02
 -3.5092026e-01   1.1832262e-02
  5.9519094e-01   5.5302370e-02
 -9.7903788e-02   1.7119303e-02
  6.9570339e-01   4.8962375e-03
 -7.3449659e-01   9.5957227e-02
 -2.4356121e-01   1.6493898e-02
  1.7764792e+00   1.0846189e-03
  5.1662529e-01   3.4460217e-02
 -4.1133973e-01   2.4082214e-02
  2.6738882e-01   3.6543120e-02
 -1.3169181e-01   5.6510670e-03
 -1.2555125e-01   5.9597407e-02
  3.3322245e-01   4.4812568e-02
  2.6868698e-01   2.3317249e-02
  5.6330270e-01   2.0304911e-03
  3.8321897e-01   5.0039500e-02
  7.7086307e-02   1.0727606e-04
 -2.2956390e+00   9.2458138e-03
 -1.2645550e-01   3.5604548e-02
  2.4710982e-01   2.2386159e-03
 -5.4111019e-02   4.3453220e-02
 -1.6259691e+00   1.2668802e-03
 -1.8306258e-01   2.8543649e-03
 -3.4102669e-01   1.2400016e-02
 -3.2166210e-01   9.8411702e-03
 -2.7546039e-01   9.4046351e-03
 -8.4241176e-01   5.7219161e-04
  3.1132364e-01   1.8147376e-03
  8.2262471e-02   7.3645865e-03
  1.6060825e-01   4.5669815e-03
 -2.4855571e-02   1.4252399e-02
  4.0092117e-01   3.5363890e-02
  1.0966983e+00   8.1714578e-03
  5.3176623e-02   9.5966635e-03
 -2.0655839e-01   3.4525272e-02
 -2.0780604e-02   4.8980061e-02
  7.3386699e-02   6.5722209e-03
  5.8230120e-01   3.2775246e-02
  2.1572779e-01   4.9337748e-02
  2.5776771e-01   1.6733987e-02
 -1.3392100e-01   3.9283815e-03
 -2.6768572e-03   4.1040272e-02
  4.1788462e-01   4.2537846e-02
  1.7375560e-01   5.1248040e-02
 -9.9931556e-01   2.5803898e-02
  6.4221060e-01   5.6268234e-04
 -7.1100391e-02   2.6437065e-02
  4.1216120e-01   4.4270717e-02
  1.7684121e-01   2.0583251e-03
 -3.9701900e-01   3.3794273e-02
  1.9879448e+00   4.3338616e-03
 -3.3724278e-02   2.0786680e-02
 -2.0417762e+00   5.0193281e-03
 -1.4534459e-01   7.5907737e-02
 -3.5948113e-02   1.4895720e-02
  3.3450478e-01   6.1879102e-02
 -7.4491209e-01   2.0207744e-03
 -1.3156474e-01   1.5625336e-03
 -3.9136446e-01   1.0022985e-02
 -2.6101309e-01   8.9433454e-03
  5.0036013e-01   6.3922465e-02
 -2.2138166e-01   4.5063477e-03
 -3.3524960e-01   9.3531599e-03
 -2.1441236e-01   8.2121968e-02
  6.4719744e-02   2.4507727e-02
  2.7301747e-01   4.6660569e-02
 -1.5251198e-01   4.6757136e-02
  1.6232438e-01   4.5828644e-02
  1.2692952e-02   6.8932055e-03
  3.2137886e-01   1.7344540e-02
 -1.0595860e+00   8.8128261e-03
  1.2828255e-01   1.4215326e-02
  5.0096989e-01   1.5960216e-03
 -4.8335853e-01   7.9338802e-03
 -5.2597368e-01   7.8590654e-02
 -1.7271342e+00   7.1486912e-04
 -4.2942908e-01   2.3667337e-03
  6.9799386e-02   1.4662644e-02
  2.5609329e+00   7.0701737e-04
  3.5719818e-01   4.7288965e-02
 -1.0636881e-01   4.0523294e-02
 -2.9989736e+00   2.9415626e-04
  3.0974784e-01   4.3970265e-04
 -1.5276115e-01   2.1361265e-02
 -1.3409436e-01   2.4268014e-02
 -8.7593967e-01   3.6633685e-02
 -2.1785815e-01   2.7053619e-02
  1.8677266e-01   6.6844020e-03
  1.8749651e-01   1.8797040e-02
 -4.9631667e-01   4.8358012e-02
 -1.5512052e-01   6.6209370e-03
  7.3677637e-02   1.9712117e-02
  6.0012702e-02   3.8200185e-02
  3.6326683e-01   5.6969479e-02
  6.5091664e-01   9.5154243e-03
  1.9581959e-01   1.2248863e-02
  3.4099689e-01   8.0322735e-03
  3.3196539e-01   4.3757606e-02
 -3.1845137e-01   1.9007467e-03
 -7.4387349e-02   8.9226626e-03
 -4.9147684e-02   3.9828375e-02
  1.1520950e-01   3.5663236e-02
  1.5668190e-01   5.5536921e-03
  2.2822332e+00   8.6386915e-04
  7.4492204e-01   1.1760756e-02
 -5.7999754e-01   1.6382348e-02
 -2.6956612e-01   4.5556806e-02
  1.4402777e-01   1.8222976e-02
 -1.0868250e+00   3.3039793e-03
 -1.3337877e-01   5.8987811e-02
 -7.2791505e-01   3.3667914e-03
 -7.2239265e-02   1.6577873e-02
 -3.6005533e-01   5.6067269e-02
 -2.7651057e-01   2.7439263e-02
 -2.6991409e-01   3.4155160e-02
 -2.9684737e+00   5.8739465e-03
 -1.8261620e-01   1.3042600e-02
  6.5888125e-01   4.7481176e-02
  2.4866673e-01   2.1642968e-03
  3.6994722e-01   1.6331876e-02
 -1.2139729e-01   1.6908821e-02
 -1.4122659e+00   1.0893336e-03
 -1.0393523e+00   3.2387092e-03
 -6.7249292e-01   2.2170004e-02
  2.7657504e+00   5.3435826e-04
 -6.6143119e-01   1.6183312e-03
  5.8549303e-01   6.9064824e-03
 -1.6559418e-01   2.3668438e-02
 -1.2771042e-01   3.8500536e-02
 -8.4727228e-02   2.0648610e-02
 -1.4784877e+00   4.2021214e-03
 -1.9006723e-01   2.8718855e-02
  2.4177063e-01   6.2389281e-02
 -4.4119531e-01   1.1402629e-02
 -1.5640314e-01   8.8942787e-03
  3.4586880e-01   2.4994067e-03
 -3.5329252e-01   3.8882349e-02
  3.7419909e-01   2.6947668e-02
 -4.9213361e-02   1.2185219e-02
  3.5733467e-01   7.7819854e-02
  1.1561879e-01   3.1849045e-02
 -5.3366494e-01   7.6468490e-02
 -2.8140262e-01   1.4119264e-02
 -2.3128407e+00   1.4772158e-03
 -3.0615514e-03   7.7129407e-03
  1.8094544e-01   1.9965194e-02
 -4.4106215e-01   1.5803390e-03
  8.6602889e-02   4.4097804e-02
  3.7647045e-01   2.9704884e-02
  5.5587780e-01   7.4670892e-03
  7.1680647e-01   4.4485927e-02
  3.8823405e-01   9.4438967e-04
 -3.7774662e-03   7.0386209e-02
 -8.9111313e-02   1.9953300e-03
 -1.6335322e-01   2.9676545e-02
  6.7068840e-04   3.3541169e-02
 -2.6540610e-01   1.7141528e-02
  8.3548692e-04   7.0137513e-04
 -2.1521711e-01   4.6246566e-02
 -7.1717069e-02   9.6297190e-03
 -8.6389053e-01   3.9826669e-03
 -4.7544032e-02   1.2242667e-02
 -4.4550428e-01   1.1412539e-02
 -3.7931004e-01   5.7466109e-03
  2.7997041e-01   2.1788767e-02
  1.4536516e-01   6.3529901e-02
 -3.5915709e-01   4.6680558e-02
  1.7031047e-01   5.6239571e-02
 -6.7922759e-01   6.8797499e-02
 -5.8032811e-01   5.7592418e-02
  4.7154668e-01   1.9877010e-03
  1.8731822e-01   3.6136203e-02
 -1.5118930e+00   1.4398420e-02
 -2.2324134e-01   3.5277694e-02
  1.7760047e-01   8.5639325e-04
  5.7087436e-02   5.0937112e-02
 -1.3699503e-01   7.9430915e-02
 -2.0862414e-01   1.3091343e-02
  3.0666059e-01   2.6624274e-02
  3.8704607e-01   5.7249516e-03
  3.7548849e-01   1.9142687e-02
  3.7799630e-01   4.7908306e-02
 -3.0434981e-01   7.6511845e-02
  3.4029552e-01   5.9719551e-02
 -5.1608282e-01   9.0283388e-03
 -4.3364388e-01   5.0349563e-02
 -2.8133743e-02   1.5853500e-02
  2.1584898e-01   3.2532584e-02
  1.6106935e+00   1.2736695e-03
 -1.5525330e-02   9.9464536e-02
 -1.2381972e-01   4.2647928e-02
 -2.7400437e-01   6.6133188e-03
 -6.5229446e-01   6.8198450e-02
  2.3499803e-01   4.5376457e-02
 -4.8273787e-01   4.1699063e-04
  1.9360904e-02   4.0460598e-02
 -7.3591375e-01   2.0356551e-04
 -5.7796702e-02   3.4636792e-02
  2.9417956e-01   3.5056382e-02
  1.9432917e-01   1.6668778e-02
 -1.3464464e-01   7.9778237e-03
 -3.0500391e-01   3.8414042e-02
  3.2010075e-01   1.1739216e-02
  1.1770171e-01   4.1061167e-02
  2.6662511e-01   8.6893395e-02
 -5.3009802e-01   1.3845867e-02
  7.9506122e-02   6.8231858e-02
 -2.0985317e-01   1.9207986e-02
  1.2979729e-01   3.1184964e-03
  2.8480881e-01   2.5031043e-02
  1.3044757e-01   8.4129244e-02
 -9.7565606e-02   4.1112565e-02
 -6.1664218e-01   1.1761188e-02
  5.4874755e-03   6.7466842e-03
 -5.9012149e-02   2.1723475e-02
 -3.7923619e-01   7.2716460e-02
  1.7653267e-01   4.7727324e-02
  1.3191681e-01   5.9097260e-03
 -3.2066086e-01   4.3370135e-02
 -9.5139879e-01   2.4026398e-02
 -9.7120501e-02   2.3789231e-02
  8.6047351e-02   1.4241299e-02
  1.4019489e-01   1.0000000e-01
  1.1317550e+00   1.0759683e-02
  5.2799249e-01   7.0201792e-03
 -3.9612615e-01   3.3173397e-02
 -2.3164545e-01   2.6857426e-02
 -1.0228875e+00   7.9333097e-02
 -1.0164820e-01   2.5225950e-02
  1.4153717e-01   3.8660258e-02
  3.6079803e-01   2.4763031e-05
 -6.7435640e-01   7.7288952e-03
 -7.2858587e-02   8.1828767e-03
 -7.6126605e-02   2.4371684e-02
 -1.3329585e+00   4.5774113e-03
  3.8895375e-01   3.3466738e-02
 -1.8073738e-01   6.5544195e-02
 -1.9307977e-01   4.8045758e-02
 -4.6094730e-01   3.4357935e-02
 -2.9717892e-01   4.1876752e-02
  2.2067726e-01   3.5742618e-02
 -2.0270114e-01   1.1224219e-02
  4.7460654e-01   3.7945579e-03
 -2.6430192e+00   7.9151959e-04
  3.6410755e-01   2.0917712e-02
  1.7571035e-01   1.0940067e-02
  5.9952587e-01   1.2010980e-02
 -2.5178361e-01   1.3953935e-02
  2.3058794e-01   8.0726724e-03
 -4.8258927e-02   1.3869977e-02
  4.7912389e-01   1.5096137e-02
 -6.8217444e-01   8.2834186e-03
  1.4488891e+00   2.0110965e-02
 -3.4267163e-01   4.9789377e-02
 -3.6043905e-02   1.6245607e-03
  6.3111502e-01   4.3945033e-02
  1.0818734e+00   4.7552725e-03
 -1.0671663e-01   6.4626959e-04
 -2.9615834e-01   1.0819200e-02
 -1.2158252e-01   4.2414445e-02
  9.7268939e-02   4.0192890e-04
 -4.5532696e-02   1.2842250e-02
  1.4427352e-01   4.9242735e-02
 -4.7672220e-02   5.7795630e-03
 -4.9268946e-01   3.0545494e-02
  3.6386773e-01   6.2297121e-02
  6.3529098e-01   7.3437795e-02
  1.1725429e-01   5.1787961e-03
  2.2455990e-02   6.4414844e-02
  5.1343167e-01   4.6161663e-02
 -1.3562648e-02   3.2807135e-03
 -2.3132963e-02   5.0808478e-02
  1.1699613e-01   4.4240687e-02
  7.9702753e-01   1.1979057e-02
  7.2414219e-02   9.5718391e-03
  2.7862477e-01   1.4359806e-02
 -1.3073477e-01   1.1977583e-02
  2.5091630e-01   5.6780718e-02
 -3.9878634e-01   8.5763581e-04
 -4.3440044e-01   1.6033493e-02
 -3.0938408e-01   7.4104825e-03
  1.2159002e-02   2.0096865e-02
  4.1829873e-02   7.9316888e-03
  7.2979622e-02   5.7313959e-03
 -5.9317525e-02   6.5800035e-04
  1.7518756e-01   1.2479403e-02
 -6.8565421e-03   1.6601048e-02
 -6.5152746e-01   2.1952104e-02
 -8.2694709e-01   1.3765176e-02
  2.5755510e-01   5.4236107e-02
 -1.6326383e-01   2.4935961e-02
 -3.7354130e-02   6.4036013e-03
  7.2047865e-01   1.0268903e-02
  3.3330157e-01   5.3205374e-03
 -7.5671919e-02   9.1317683e-02
  1.0159156e-02   3.6232546e-03
 -1.4732885e-01   8.3576433e-02
 -5.8244336e-01   7.2961897e-02
  4.7749957e-01   5.2227784e-02
 -3.8892064e-02   1.0857206e-02
 -5.5595059e-02   4.8761457e-02
  3.4670708e-01   1.5299354e-02
  4.5683545e-01   9.2055507e-02
  6.1079498e-02   8.2332440e-02
  1.3599230e-01   1.2429642e-02
  4.4377972e-03   3.7313722e-02
  8.3824232e-02   2.1724857e-02
  5.9831742e-02   2.7418623e-04
 -1.0440646e+00   9.3290699e-04
  4.2647779e-01   6.8384322e-04
  7.9245323e-01   4.0931843e-04
 -1.0007234e+00   6.8337366e-04
  1.2436298e+00   6.1625935e-04
 -1.3804885e+00   2.4369226e-03
  4.8395153e-03   1.5604617e-03
 -2.1290481e+00   4.1275323e-04
  9.2836451e-03   3.8342728e-04
 -8.7230092e-01   5.3121900e-04
  4.2329001e-01   9.1934628e-05
 -1.4145427e+00   7.0654292e-04
  2.9788928e+00   1.1443783e-03
  1.2111751e+00   9.3158418e-03
 -1.3617160e+00   3.0395412e-03
 -1.6734581e+00   5.2252002e-03
  1.0649697e+00   1.9033521e-02
  3.3648178e-01   7.3568802e-03
 -6.5128422e-01   8.6181061e-03
 -7.5045395e-01   2.2570654e-03
 -3.9468050e-01   1.1386468e-02
  1.1037577e+00   1.0486559e-02
  4.7349337e-01   1.3578045e-03
 -1.2774948e+00   2.2725962e-02
  3.1505644e+00   2.9408941e-03
 -4.8394927e-01   1.8823096e-03
  8.8111199e-02   1.2690847e-02
 -7.0254132e-02   8.8852439e-03
 -6.3291407e-01   5.9171522e-04
  6.3178581e-01   7.3165825e-04
 -8.7242901e-01   1.1950468e-02
 -4.9538544e-01   3.9850511e-02
 -1.0529892e+00   2.8324304e-03
  1.0527114e+00   2.5903564e-03
  1.4152169e+00   1.0708391e-02
  9.4450748e-01   1.0525917e-02
  6.3506514e-01   5.1514395e-02
 -2.7446017e-01   1.2472168e-02
 -1.8494445e+00   4.1474202e-03
  5.5355114e-01   4.0241992e-03
 -6.1104405e-01   1.1912528e-03
 -1.4103760e+00   9.6918875e-03
  1.7829953e-01   5.2355009e-04
  1.6618043e+00   5.0708274e-03
  1.7037792e+00   7.6895026e-03
 -6.0988051e-01   2.0523567e-02
  5.0944740e-01   8.9873327e-03
 -3.2378653e-01   2.3666944e-03
  1.0633945e-01   1.8503036e-02
  1.8865824e-01   1.2666604e-02
 -3.4760767e-01   6.3495915e-03
  4.0411239e+00   6.4138011e-03
 -3.3309579e-01   3.9421517e-02
  1.2075337e+00   2.2265535e-02
  2.1807246e-01   7.1063705e-02
 -7.6311773e-01   5.9314389e-03
 -1.9090567e+00   4.4915164e-03
 -1.3506912e-01   4.7562428e-02
  7.6145090e-02   3.9327759e-03
 -5.6713033e-01   2.9294268e-04
 -1.8686196e-02   4.2067923e-02
  5.3250152e-01   1.2441277e-02
  2.2633931e-02   1.6663773e-02
 -6.4105019e-02   5.5459730e-02
  3.2728687e-01   3.7305299e-02
 -1.7475246e-01   2.5503540e-02
 -3.9102706e-01   1.8671283e-02
  2.4333179e-01   2.4432756e-02
  6.0596085e-01   5.8012446e-03
  7.2584563e-01   3.0014990e-03
  1.1031930e+00   3.2960961e-03
  4.8520222e-01   1.2015492e-02
  8.5737628e-01   9.8711520e-04
 -3.2878533e-02   1.2195712e-02
  4.3099707e-01   4.1255608e-02
 -5.1064354e-01   9.7102739e-02
 -1.4017590e+00   2.3832596e-03
 -5.6554365e-01   2.4595731e-03
  4.9735409e-01   2.4582591e-02
  3.8998452e-01   1.0851047e-02
  8.0639333e-01   1.2983007e-02
 -7.4503464e-01   5.0549056e-02
  2.3473275e-03   1.7158538e-02
  1.3508325e+00   2.5893226e-02
  4.7827753e-01   3.6016434e-02
 -6.8888746e-02   2.0539735e-02
 -8.0561571e-02   6.7748509e-02
  1.1186798e-01   8.8366129e-02
 -6.3118237e-01   6.9901034e-02
  2.4561432e-01   1.4628657e-02
 -1.0613084e+00   2.3260601e-02
 -6.3691181e-01   3.7541475e-02
 -2.5247446e-01   5.3252690e-02
 -2.9203999e-01   3.1979546e-02
  2.4820095e-01   9.5194820e-03
  1.4510699e-01   4.8344966e-02
 -9.6496129e-01   5.9177889e-03
  1.9078642e-01   3.6897995e-02
 -4.1872230e-01   7.2462238e-02
  1.4239146e-01   3.7011296e-02
  9.6898866e-01   5.3586815e-03
 -2.9221469e-01   1.0638114e-02
 -2.0383784e-01   1.4618107e-02
  2.7576382e+00   7.9735817e-04
 -1.3603663e-01   3.7339829e-02
 -2.8288218e-01   2.2495667e-02
  4.7629154e-01   6.7361288e-02
 -1.4988496e-03   4.7407821e-02
 -5.9295362e-01   6.5639340e-03
 -1.1274182e-01   1.9568607e-02
 -2.7086079e-01   1.0156931e-03
  1.8883549e-01   3.8987745e-02
  8.1237152e-02   7.1833260e-02
  1.6628528e-01   6.9843228e-03
 -7.2569378e-02   1.9199327e-02
 -1.0032422e-01   5.5049907e-02
  1.1114242e+00   2.4908665e-04
  3.2722253e-01   5.9112906e-03
  1.1496982e-01   1.4943018e-02
  4.4841680e-01   3.6106952e-02
 -2.1776181e-01   3.1234592e-02
  8.4298992e-01   1.1378548e-03
  2.2800906e+00   4.2103808e-03
  7.1625584e-01   9.5744757e-03
  1.1567596e-01   1.9153375e-02
 -1.4011341e+00   1.5800656e-03
  1.6890261e-01   6.8301721e-03
  3.6658132e-01   1.6521623e-02
 -2.5723344e-01   2.7356537e-03
 -1.5859597e+00   9.5969497e-04
  4.3412823e-02   1.6501430e-02
  2.2206509e-01   8.1003033e-02
  6.2923051e-02   2.6386492e-03
 -2.7067170e-01   5.2561611e-02
  2.6972505e-01   1.3246134e-02
  4.8677140e-01   5.9864197e-02
 -1.4755264e-01   9.7381752e-03
 -3.8467182e-03   6.5661810e-02
  2.1105886e-02   4.3371134e-02
 -3.5103634e-01   5.6766070e-02
 -2.9961245e-02   1.1761700e-02
 -4.6661803e-01   2.3454178e-02
  5.3190649e-01   2.2384813e-02
 -5.5359834e-01   6.3694306e-02
  1.9814287e-01   1.8879194e-02
  7.9728895e-01   3.7757377e-04
 -1.7755388e+00   1.0015399e-02
  1.7082947e-01   2.7422037e-03
  6.7113918e-01   2.3589768e-02
 -1.9846404e-01   4.0575184e-02
  6.0028005e-02   3.6452055e-02
  1.1131773e+00   2.6982123e-04
  6.8914443e-01   3.5503685e-02
  2.8746629e-01   2.2742335e-02
 -1.2112421e-01   3.4044315e-03
 -9.1752177e-03   1.3077039e-02
  1.7517687e-01   1.8534901e-02
 -1.5174906e-01   2.3279278e-02
  1.8673111e-01   9.2879264e-03
 -1.6098802e+00   1.2471115e-03
 -2.8596153e+00   1.8930874e-03
 -9.9917346e-01   1.6121285e-02
  1.1129142e+00   8.8785618e-04
 -5.5156939e-02   1.2565708e-02
  9.6263379e-02   2.7312288e-02
  6.0359016e-02   8.4558934e-02
  7.4425630e-02   1.4981084e-02
  6.6403596e-04   4.1606352e-02
 -1.6845409e-02   1.4357260e-02
 -4.3623138e-02   4.3845925e-02
  9.3506210e-02   2.7088687e-02
 -6.5037116e-02   4.3067910e-02
  1.9250952e-01   2.5625272e-02
  6.3394976e-01   7.1285004e-03
 -2.4045868e-01   1.6283136e-02
  1.8602531e-01   1.2935685e-02
 -3.5102820e-01   1.6996363e-02
  4.0484941e-01   3.2851212e-02
  1.4087640e-01   5.0107110e-03
  5.6397504e-01   1.1477710e-02
  7.2834474e-01   7.4516945e-03
 -7.7605270e-02   9.1572799e-02
  4.3838555e-01   1.7500373e-02
 -1.2690433e+00   1.1498928e-03
 -4.0257761e-01   5.3541735e-03
 -7.7536963e-02   6.2424708e-03
  1.7471726e-01   4.4781161e-03
  4.4536701e-01   3.3187391e-03
  1.1480829e+00   1.4676470e-02
  3.3160727e-02   5.4570690e-02
  2.8944024e-01   1.1044006e-02
  3.6685967e-01   1.1147046e-03
  1.9354813e-02   3.5778258e-02
 -8.8094458e-02   2.6435887e-02
  2.7442859e-02   1.9317538e-02
 -5.2815586e-02   2.7642133e-02
  2.6159865e-01   1.6635302e-02
  8.8875771e-01   1.2905569e-02
 -5.3213768e-02   1.8456606e-02
 -2.3409531e-01   1.6216159e-02
  7.7017725e-01   3.2129209e-03
 -1.4993288e-01   3.7856291e-03
 -2.6712999e-01   2.8911438e-02
 -2.1554127e-01   3.9679494e-02
  3.1022933e-01   5.2710637e-02
 -1.4066996e-02   1.1599055e-02
  5.7636333e-01   1.5606709e-02
 -5.9081942e-02   5.2784034e-03
 -9.8495528e-02   2.1015411e-02
 -9.7395051e-01   7.7520134e-03
 -1.6938536e-01   5.9670236e-02
 -2.4876548e-01   1.8384235e-02
 -2.7811429e-01   1.0050684e-02
 -1.0290439e-01   9.1138138e-03
 -8.9132142e-01   9.2138787e-04
  2.5300443e-01   6.0571589e-02
  1.5794279e-01   1.8284990e-02
  2.8073305e-01   5.9682485e-02
 -9.3332484e-02   6.4901109e-03
  1.8252712e-01   2.8851403e-02
 -4.4653591e-02   2.5133360e-02
  2.6404573e-02   1.5275619e-03
  1.2479950e-02   2.4108771e-02
 -4.9620226e-01   2.8918153e-03
  4.4061456e-02   1.8744299e-02
 -3.2615688e-02   7.9807714e-03
  3.6900306e-01   1.5585589e-02
  2.6068148e-01   6.2806755e-02
 -1.6451094e-01   8.2761822e-03
  1.8359777e-01   4.5992006e-02
 -3.3028361e-01   8.8388985e-03
  1.1493589e+00   7.9977245e-04
 -3.3374351e-01   1.5199898e-02
 -5.2030379e-01   3.2703388e-02
  1.4922008e-01   1.5701283e-02
 -7.3922211e-01   1.3641590e-03
 -2.4186921e+00   1.9255648e-03
 -6.6479158e-01   7.9619996e-02
  4.2777994e-01   1.7415335e-02
  4.9684685e-02   5.5954559e-03
 -1.4525208e-01   1.0083548e-02
  1.0272877e-01   5.3130839e-02
  5.2134050e-03   5.5454195e-02
  5.2998960e-01   5.9311993e-02
  3.3489862e-01   5.2102514e-02
 -5.0453818e-01   1.6138440e-02
  5.7507675e-02   4.9975934e-03
  4.9300045e-01   1.9271411e-02
 -2.3490985e-01   6.9818616e-02
 -3.8308460e-01   3.2567304e-02
 -1.0565295e+00   1.7441346e-03
  1.5240169e-01   2.0200914e-02
 -2.8713872e+00   3.5281347e-03
 -1.9753993e+00   1.9783343e-03
 -5.4139870e-01   4.3104362e-02
  2.1759331e-01   6.8290837e-02
 -4.3477350e-01   1.6059162e-02
 -5.5133480e-01   6.8996407e-02
  2.4405012e-01   9.6947663e-03
 -2.8083128e-01   2.3880966e-02
  1.1809412e-01   5.6127929e-03
 -3.8150144e-01   1.5316303e-02
  4.6860704e-01   3.4808656e-04
 -2.2532369e-01   2.5202198e-02
 -1.0193778e+00   2.1967504e-03
  9.2330801e-01   6.2239484e-04
 -7.1458846e-01   1.9556991e-04
 -5.6886452e-01   3.1477381e-02
 -3.2586180e-02   8.2087899e-03
  8.7605530e-01   3.0831692e-03
 -1.4232773e-01   1.8244019e-02
  5.5320162e-02   3.7357088e-02
 -7.7125952e-02   3.2482762e-03
 -3.2078805e-03   3.9225072e-02
  3.8226449e-01   1.8986339e-02
  4.4638678e-02   7.2500385e-02
  5.4972476e-01   8.2915977e-02
  1.5407543e+00   1.2190966e-02
  1.5728317e-01   7.4840367e-02
 -9.5476337e-02   3.1308478e-03
 -9.0692788e-02   1.2562699e-02
 -1.0319903e+00   1.2715502e-02
 -9.1887094e-02   7.6265433e-03
 -1.5424725e-01   3.9040245e-02
 -1.8143539e-01   4.9861930e-02
 -1.3846681e-01   4.4075862e-02
  4.6509328e-01   2.7235508e-02
  4.1530487e-01   4.2675696e-02
  2.2826126e-01   7.2012641e-03
 -2.7525571e-01   4.2251244e-02
 -2.7663952e-01   2.3012174e-02
 -5.7858926e-01   4.0293247e-03
 -2.6447919e-01   7.8266278e-02
 -1.1186832e+00   1.6814840e-03
  8.0586451e-01   4.2566685e-03
  1.2943731e-01   2.3822280e-02
 -2.5364444e-01   1.8652158e-02
  1.1546936e-01   6.7573442e-04
 -1.9227156e-01   1.5426511e-02
  7.0078182e-01   2.5950097e-02
  6.0001320e-01   9.6204858e-03
 -1.1121472e+00   7.5622820e-03
 -2.0879254e-01   2.5573915e-03
  7.3476797e-01   5.8318800e-03
  1.5434811e-01   8.3265036e-02
  5.7499307e-01   1.5956769e-02
 -1.9175164e-01   8.5451849e-02
 -2.9031014e-01   2.4676003e-02
 -3.3371204e-01   8.6556107e-02
  9.7510755e-01   6.9159274e-03
  5.4601496e-01   7.3289260e-02
  1.8970689e-01   7.6419547e-02
  6.8974835e-01   9.6969614e-03
  7.4030203e-01   6.3037090e-02
 -3.7606373e-01   2.6862787e-02
 -6.6542536e-02   4.8333898e-02
 -4.0973005e-01   1.3280200e-02
  1.5338866e-02   6.3552489e-03
 -5.8849216e-01   5.0530294e-03
  4.0260550e-02   1.3585462e-02
 -1.7321610e-01   1.4845023e-02
  4.7517088e-01   2.5234506e-03
  4.2931694e-01   4.8250291e-02
  3.3507329e-01   3.2392073e-02
  5.6784344e-01   9.7113540e-03
 -6.9537915e-02   2.4657704e-02
 -1.8757795e-01   2.5820466e-02
 -1.3545509e-01   2.8875781e-02
 -2.6815772e+00   2.1032565e-03
  6.0171759e-01   9.3310103e-02
  1.9298231e-02   1.4240061e-02
 -2.1857295e+00   2.5207344e-03
  1.5079172e-01   1.3050022e-02
 -8.6923182e-02   2.8639980e-02
  2.3325032e-01   8.0556370e-02
  1.6697648e-01   3.9180018e-02
 -4.2511881e-03   8.4081538e-02
  4.5025459e-04   1.3913342e-02
  1.4702599e-01   8.5454918e-02
  2.6887429e-01   9.6979797e-02
  3.4046027e-01   2.3164907e-02
  3.8269427e-01   6.2111585e-04
  6.7573607e-01   2.9463815e-02
 -1.0078858e-01   3.1817060e-02
 -3.0927852e-02   1.4667542e-02
 -2.4898641e-01   5.0139047e-02
  4.7680405e-01   4.6431240e-02
  2.9437378e-01   6.7818479e-04
 -5.1739354e-02   3.7656609e-02
 -2.8679349e-02   9.1543589e-03
 -4.4725290e-01   2.8220283e-02
 -5.0679529e-01   8.0692554e-03
  5.1240301e-01   7.5999321e-03
  3.9093497e-01   1.3155491e-02
  4.4094119e-02   9.8473281e-03
  1.0128525e-01   1.0055478e-03
  5.1856202e-01   6.4792238e-02
 -9.8264843e-02   4.2187925e-02
 -3.5613239e-01   1.1437295e-02
  1.1382124e-02   4.1630097e-02
  4.9961352e-01   3.1130306e-02
  2.6123033e+00   2.8653047e-05
  6.3306820e-01   4.2327195e-03
 -5.2591920e-01   3.2918703e-02
  1.2090025e+00   8.9334272e-04
  4.3148035e-01   3.0075593e-02
 -1.5230703e-01   5.2038752e-02
 -8.8991717e-02   5.0856281e-02
 -9.8919176e-02   2.9924903e-02
  2.3929977e-01   1.2153190e-02
  5.7925063e-01   2.6605261e-02
 -1.9116987e-01   2.2771964e-02
 -1.1664602e+00   1.4230655e-02
  1.4589015e-01   1.1129864e-02
  1.7707128e-02   1.3700587e-02
 -2.0575418e-01   6.9991793e-03
  5.1698560e-01   8.1855833e-04
  6.2800193e-01   6.1118248e-04
 -1.0342581e+00   1.4825944e-03
  3.7822139e-03   9.5114121e-03
 -4.6343818e-01   6.8240523e-02
 -2.5974799e-02   2.0409262e-02
 -3.3970632e-02   1.4557747e-02
  3.3153141e-01   5.8759693e-03
  7.6140618e-01   4.2397673e-03
  4.6084994e-01   5.0224513e-03
  2.5676736e-01   6.4142700e-03
 -8.7167031e-01   6.3894311e-04
  2.8733841e-01   2.3027435e-02
  3.0145890e-01   2.0796042e-04
 -5.3270626e-01   1.0928184e-02
 -4.4409990e-01   4.7046151e-02
  1.0157198e-01   1.1686351e-02
 -3.4929675e-01   7.7794455e-02
  1.7903432e-01   2.7287476e-02
 -3.6800396e-01   6.2577459e-03
  5.1627386e-01   5.9952079e-03
 -1.2506329e-01   2.9848231e-02
  2.6835844e-01   3.7584804e-02
  2.8560504e-02   2.7027484e-02
  3.1319978e+00   5.5332936e-04
 -1.4233736e+00   6.8656849e-03
 -3.9618850e-01   2.7581252e-02
 -8.6733982e-02   4.9950749e-02
  3.9734863e-02   8.6194105e-02
 -1.7983858e-01   1.0577312e-02
 -6.4411157e-01   8.8715386e-03
 -9.0649194e-01   1.0996293e-03
  3.9614642e-01   7.8975223e-03
  2.6552111e-01   1.0883266e-04
  4.5897469e-02   3.8710122e-03
  1.2148087e-01   1.5153723e-02
  7.6701313e-02   9.1496306e-03
  1.1108634e-01   1.2946188e-02
  4.5641127e-01   2.2178831e-02
  8.1986330e-02   1.3555824e-02
 -3.5953501e-01   2.5680384e-03
  5.9436840e-01   4.7800667e-03
 -5.5694568e-01   2.3713391e-02
  1.0780035e+00   7.1178097e-03
  8.4393598e-02   1.5789595e-02
 -9.4270192e-02   2.9504474e-02
  6.3474822e-01   1.1149349e-02
 -6.7537725e-01   3.0684429e-03
  4.4140264e-01   6.4547695e-03
  1.0579588e+00   4.4728767e-02
 -3.7190840e-02   5.6232244e-02
  4.2736256e-01   9.3434965e-03
 -3.7137401e-01   3.5838835e-02
 -3.7957492e-01   2.8450606e-02
  2.8377686e+00   1.5280289e-03
 -1.2262734e-01   2.6561517e-02
 -4.6031881e-02   1.5369251e-02
  3.5862452e-01   1.1715969e-02
 -1.1537138e-02   1.0576823e-02
  1.0525420e+00   2.0963468e-02
  3.1413408e-03   8.5921893e-03
 -4.2042026e-01   2.4161919e-03
  5.6342739e-01   2.5230262e-03
  1.2246970e+00   4.1706008e-03
 -5.7361837e-02   7.0766009e-02
 -6.1377627e-01   3.3174814e-03
 -4.0058663e-01   9.3154730e-03
 -1.7750296e-01   1.6490205e-03
 -2.5078341e-01   1.4886698e-02
 -1.5752427e-02   2.6151460e-02
  4.8289347e-01   4.6993664e-04
 -1.8152808e-01   4.6746931e-03
 -2.3676534e-01   6.7954981e-03
  5.1207161e-01   2.9127644e-03
  7.8014191e-04   8.8579077e-03
 -5.3818221e-03   4.0858284e-02
 -2.0878859e-01   4.2649612e-02
 -2.1178198e-01   1.5801555e-02
 -3.9492947e-01   9.2734568e-02
 -7.4785814e-02   4.6012688e-02
  2.3097677e-02   1.5326797e-02
 -5.4818500e-02   2.1260649e-02
  1.3016918e-01   1.5958361e-02
  2.1276549e-01   4.8345752e-02
  1.3593492e-01   2.8105048e-02
 -1.2538728e-01   9.7616389e-02
 -1.3532315e-01   6.1922576e-03
 -4.5137033e-03   1.6114037e-02
 -3.3540186e-02   1.0615323e-02
  2.4231741e-02   6.6216467e-03
  3.7458718e-01   8.6409179e-03
 -6.9794916e-02   1.7849445e-02
 -2.4976781e-02   2.2749959e-02
  1.8103518e-01   7.8581581e-03
 -1.4685543e+00   2.7839234e-03
  2.5946847e-01   1.8817121e-04