 -9.1614276e-02   5.5607911e-02
  7.8203809e-01   9.0042204e-03
 -3.6189720e-01   2.6138343e-03
  4.8498459e-02   1.6728841e-02
 -4.8725334e-01   2.1850707e-03
 -1.6061080e-01   1.3125076e-02
  2.7433866e-01   2.3773761e-02
 -1.2203301e+00   3.6789104e-02
  2.1938138e-01   1.0133233e-02
  4.0388349e-02   8.4006846e-02
  1.1208042e+00   2.7828699e-02
 -6.3868499e-01   5.2772794e-02
 -2.0755675e-02   4.8482973e-02
  2.3491427e-01   1.1579311e-02
  1.9405837e+00   1.9065005e-04
  3.3334982e-01   5.6748766e-02
  1.1220008e-01   8.7973066e-03
 -4.1907054e-01   4.6013677e-03
  1.1253870e+00   4.2330489e-02
  6.0519284e-01   1.6152576e-02
  5.8841109e-01   4.0241978e-03
 -1.3506868e-02   7.1392752e-02
 -1.6791028e-01   6.4700413e-03
  4.4409299e-01   3.9724473e-02
  5.8802432e-01   4.3243639e-02
 -1.0766109e-01   4.8912909e-02
  2.1433961e-01   8.4892787e-02
  3.0428064e-01   8.9221178e-03
  5.7997438e-03   3.4037556e-02
  5.1486975e-01   2.2979932e-02
 -6.0590595e-01   6.6130869e-02
  9.6452838e-01   2.7534282e-02
  3.5726610e-01   2.6472846e-02
 -4.9544773e-03   4.5729065e-03
  1.7171226e+00   1.6659504e-02
  5.8168900e-01   2.1696683e-02
  1.0356799e+00   1.9139666e-03
  6.2017798e-02   6.9354912e-03
 -2.3021263e-01   3.2832175e-02
 -2.9853711e-01   4.0082693e-02
 -2.1326482e+00   3.5618222e-03
 -7.5940019e-01   1.5768349e-02
  1.2890070e-02   5.8914166e-02
  4.6406847e-01   2.8285520e-02
 -5.6496639e-02   3.2761313e-02
  3.6646065e-01   2.1167137e-02
 -2.0573536e-01   5.8037974e-03
 -7.1162082e-02   7.8055141e-03
 -8.1268948e-01   6.4394310e-02
 -8.1737185e-01   1.4615453e-02
 -3.6955258e-01   4.8903000e-02
  6.1102748e-01   7.6726303e-02
  9.4400803e-03   2.0900330e-02
  8.6956695e-02   5.4805033e-04
 -8.1665277e-01   2.2769744e-02
 -8.9032340e-01   8.6672287e-03
  8.8754326e-01   5.5951748e-02
 -2.2860938e-01   2.5435431e-02
  3.1215403e+00   2.3540254e-03
 -2.7583644e-01   1.2329047e-02
  4.3549648e-01   1.0469974e-02
  2.2335675e-01   5.6814380e-02
  1.9907020e-01   6.4798337e-03
  3.1023148e-01   2.7542118e-02
 -1.6991855e+00   9.9533296e-04
 -6.5333402e-01   8.8712927e-03
  9.3320003e-03   7.1067794e-04
 -3.7205562e-02   5.7940073e-02
  4.8378658e-01   2.3452744e-02
  1.6754813e+00   3.3176588e-03
 -1.3164880e-02   8.0265254e-02
 -5.4325327e-02   8.6674936e-02
 -1.4362623e-01   1.6180927e-02
 -3.8434210e-01   5.1353712e-02
  3.5561484e-01   4.8627917e-02
  2.5585714e-01   7.4064314e-02
  1.3729945e-02   4.5319218e-03
 -1.1485060e+00   1.0473456e-03
 -2.0361720e-02   4.6069000e-02
  1.1439134e-01   6.0829654e-02
  1.3405624e-01   5.2218761e-02
 -1.1888745e-01   4.4213139e-02
 -9.7480011e-01   9.7835764e-02
 -1.4579179e+00   4.4746371e-03
 -3.3245432e-01   1.8191855e-02
 -3.3680677e-02   2.0894188e-02
  4.8351702e-03   4.4383481e-02
 -3.4784406e-01   7.4482217e-02
 -4.1058511e-01   1.9236883e-02
  6.2296665e-01   8.2532123e-02
 -6.6559330e-02   5.8484944e-03
  3.4966131e-04   1.3152931e-02
 -3.9799190e-01   4.4583280e-02
 -3.3708081e-02   1.9341070e-02
 -4.6273932e-01   5.7356015e-02
 -4.0956292e-01   1.3814878e-02
  3.2765618e-01   2.4592994e-02
 -4.7084194e-01   1.6446475e-02
 -2.4301755e-01   5.5299822e-02
  9.0592109e-02   1.9910589e-02
 -4.1277927e-01   7.4640890e-03
 -1.1644515e+00   1.7794744e-03
  2.5753006e-01   4.5783270e-02
 -2.6635036e-01   4.4864669e-02
 -1.7072922e-01   4.1844763e-02
 -2.9982075e-01   1.8285816e-03
  1.0883163e-01   4.5619473e-02
 -1.9963640e-01   5.9606023e-02
  2.5230977e-01   2.8604317e-02
 -4.2091814e-01   3.2800178e-03
  6.6129208e-02   2.4802715e-02
  1.1313007e+00   5.8604274e-03
  1.0027756e-01   1.7404256e-02
 -2.7179441e-01   5.8926757e-02
 -5.5429494e-01   5.4411188e-02
 -6.9890636e-01   1.8602984e-02
  5.0837898e-01   3.7611172e-02
  9.0257174e-01   4.2181980e-02
 -1.4014152e-01   2.5314488e-02
  6.1092805e-02   2.7109137e-02
 -7.0226091e-01   6.7478858e-02
  8.3511096e-01   4.3060284e-02
 -8.5305899e-01   5.6598511e-02
 -4.5402566e-01   3.1463686e-02
 -4.1471049e-01   2.1555802e-02
 -1.1085484e+00   1.9958159e-03
  5.4488403e-01   2.6207916e-03
 -9.5178030e-02   2.6984651e-02
 -3.2648012e-01   8.1961535e-02
 -2.2996796e-02   7.8814656e-02
  1.7905772e-01   2.0900279e-02
 -8.2687998e-01   4.0156175e-03
  3.0459063e-02   6.8559833e-02
  7.6383255e-02   4.2671431e-02
 -3.6653501e-01   6.7235768e-02
 -4.8982561e-01   7.8894384e-03
  5.8625978e-01   4.9280651e-02
 -3.3584427e-02   2.0593400e-03
  7.3342836e-03   3.8089785e-03
 -1.5791203e+00   9.4047956e-02
  4.7491670e-02   3.7271690e-02
 -4.1153041e-01   5.6644280e-02
  1.7046154e-01   1.8380297e-02
 -3.6238852e-01   9.9773124e-02
  2.5872642e-01   8.4326118e-03
 -4.8879242e-01   1.3101383e-02
 -1.8120278e-01   2.9993512e-02
 -6.6565543e-01   2.0940576e-03
  1.9382770e-01   6.4637899e-02
  1.9241217e-01   2.8408730e-02
 -2.1464986e-01   6.9210671e-02
  2.0591183e-01   1.7263651e-02
  3.7706521e-01   4.2827811e-02
 -4.3078446e-01   1.0167641e-02
  1.3484608e-01   1.3842181e-03
 -5.8876371e-01   1.8380666e-02
 -1.1489683e+00   6.7924708e-02
  4.7808352e-01   1.6346956e-02
 -4.6535292e-01   4.7091335e-02
  4.5847771e-01   2.3494802e-02
  8.7626809e-01   7.6660193e-03
 -2.9820314e-01   6.7810379e-02
  1.2101246e-01   7.5413972e-02
  1.7491375e+00   1.8003333e-03
  4.3082902e-01   8.0353886e-02
 -5.8325356e-01   1.7694872e-02
 -7.2588670e-01   2.5102483e-02
 -9.1896027e-01   1.1180556e-02
  3.6989581e-02   6.1195124e-02
 -9.7920164e-02   4.3659072e-02
 -1.7609328e-01   3.5242751e-02
  4.7562519e-01   5.5641811e-03
  8.8885695e-02   3.1706620e-02
  3.8745165e-02   1.3024522e-03
 -2.5161321e+00   2.9348258e-03
 -6.2851839e-02   5.2410346e-02
  2.8504622e-01   6.8561253e-03
 -3.2031348e-01   4.2135973e-02
 -1.5368673e+00   1.0010069e-02
 -1.8207510e-01   8.8953582e-04
 -3.8526279e-01   1.7641719e-02
 -1.1382766e+00   7.6030088e-03
 -3.4721246e-01   6.1803788e-02
 -8.5568571e-01   9.3301811e-04
  1.6885063e-01   7.9828696e-03
  3.0870092e-01   5.7421392e-03
  2.1890295e-01   8.6334329e-03
 -1.1475050e-01   2.9174211e-02
 -4.9288711e-01   2.5846262e-02
  1.6289183e+00   1.5315942e-02
 -3.0498248e-01   3.7616170e-03
 -5.5986073e-02   5.2472178e-02
 -4.2423511e-01   2.7953275e-02
 -2.3076543e-01   1.3597460e-02
 -5.3205833e-02   2.2001991e-02
  1.2334218e+00   9.2136450e-03
  1.0279546e+00   3.8862560e-02
 -2.2233002e-01   6.7601237e-03
 -1.9348723e-01   4.4449423e-02
  6.4372003e-01   5.1166192e-02
 -1.3232675e-01   3.1498034e-02
 -3.3587676e-01   3.3642150e-02
  6.2019664e-01   9.9744147e-04
 -5.3605139e-01   2.7324345e-02
 -3.8977772e-01   1.8747224e-02
  3.7055310e-02   6.1782729e-03
  3.6315400e-02   7.3227040e-02
  2.2311485e+00   5.1326663e-03
  8.5504673e-02   5.0488394e-02
 -2.0624824e+00   2.7640329e-03
 -2.9756066e-01   5.4054908e-02
 -3.4661180e-01   2.0057926e-02
 -7.2179206e-02   9.7532980e-02
 -4.1538778e-01   4.7757952e-03
 -8.9939117e-02   8.0132736e-03
 -9.1021985e-01   4.1651139e-03
 -4.2867559e-01   9.9780019e-03
  7.0674968e-01   1.5208845e-02
 -4.1236007e-01   6.0457722e-03
 -2.6393130e-01   3.4960026e-03
  5.2950281e-01   8.1878431e-02
 -3.4392655e-03   3.6381524e-02
 -2.7443382e-01   3.8155392e-02
 -6.1008406e-01   4.3812402e-02
  1.2679225e-01   2.1898510e-02
  8.0294251e-02   2.9287016e-02
 -2.1345562e-01   2.9994640e-02
 -1.2626240e+00   4.5728851e-03
  2.2404012e-01   1.2853974e-02
  5.7340306e-01   7.0994869e-03
 -1.0925225e+00   3.5926376e-02
 -1.4037973e-01   6.2101468e-02
 -1.7447358e+00   4.4206894e-04
 -4.0561640e-01   1.0267906e-02
 -2.7744889e-01   3.5930108e-02
  2.5770416e+00   1.6107633e-03
 -3.9404191e-02   6.9359086e-02
  7.7558577e-02   3.6859967e-02
 -3.0027437e+00   1.0518011e-03
  3.0314001e-01   8.7096699e-04
  4.6057481e-01   2.1554358e-02
  2.6930660e-01   2.2855897e-02
 -3.2115749e-01   2.6503403e-02
  2.4720529e-01   2.0252051e-02
  3.8671382e-02   1.4810619e-02
  3.9266703e-01   2.9895283e-02
 -5.7217240e-01   5.7662111e-02
 -1.0207442e+00   7.9640271e-03
  1.1098833e-01   3.0152237e-02
  3.6927161e-01   4.4140548e-02
 -1.3766642e-02   9.1412095e-03
  5.2502441e-01   6.1456566e-03
 -6.0506046e-02   2.7497463e-02
  6.0885996e-01   8.7058069e-03
  5.4313648e-01   9.1390483e-02
 -4.6780309e-01   7.2397082e-03
 -1.3533905e-01   1.2815546e-02
 -1.9961233e-01   2.6069090e-02
  6.1634225e-01   1.4167618e-02
  1.2718393e-01   4.1243858e-03
  2.3149934e+00   3.5469141e-03
  4.3654570e-01   2.5083307e-02
 -9.3250722e-01   2.0942235e-02
 -3.1880647e-01   3.5865795e-02
  3.8250902e-01   1.4247640e-02
 -1.1297474e+00   5.0247102e-03
 -3.0466801e-01   6.7990243e-02
 -5.7131904e-01   3.8886233e-03
 -8.5540432e-01   4.1547626e-02
  2.5484356e-01   8.9463890e-03
  1.9792855e-01   5.3377632e-02
  2.7402461e-01   3.5440162e-02
 -3.2016301e+00   5.2198367e-03
  2.8468066e-01   9.0054451e-03
  6.1249298e-01   5.7821680e-02
  3.0485311e-01   3.1346979e-03
  3.2777268e-01   2.3185706e-02
 -5.3167239e-02   1.9184241e-02
 -1.3383609e+00   3.8583956e-03
 -1.1913681e+00   8.6163962e-03
  4.9501743e-02   2.4996752e-02
  2.7553194e+00   1.5711513e-03
 -5.0038195e-01   2.0286338e-03
  9.8581225e-02   2.5616776e-02
  3.5746107e-01   3.6104266e-02
  1.2499905e-01   2.0600542e-02
  2.4809965e-01   1.5380737e-02
 -1.5021133e+00   2.0993697e-03
 -1.8689087e-01   4.1754175e-02
 -2.0974900e-01   3.9992943e-02
 -6.2274319e-01   4.6899924e-03
 -4.0103132e-01   9.1369189e-02
  5.5191445e-01   3.6584835e-02
 -1.7286712e+00   6.0247585e-02
  5.7218426e-01   3.0937782e-02
 -6.5063858e-01   1.5262301e-02
 -1.0327811e+00   3.1384643e-02
  1.9322295e-01   4.0029489e-02
  7.5186975e-02   6.1394375e-02
  2.2611810e-01   4.1614860e-02
 -2.2384779e+00   9.0880855e-04
 -5.2618897e-01   2.6686698e-02
  1.5449151e-01   7.4855015e-02
 -6.2626493e-01   4.1787373e-03
  6.6350663e-01   7.4154601e-02
  1.5762149e-01   8.2702236e-03
  9.9115711e-01   1.4212883e-02
  3.1575957e-01   7.4349202e-02
  1.4326879e-01   6.2999660e-03
 -3.9504237e-02   5.8394365e-02
  1.3544506e-02   4.5698103e-03
 -5.2549309e-01   2.4932526e-02
 -3.3925021e-01   3.6417037e-02
 -8.4830034e-01   2.2315644e-02
  7.9746647e-03   3.4087177e-03
 -2.6020139e-01   2.1834603e-02
 -9.4288647e-01   3.5467003e-02
 -6.7040902e-01   1.0561850e-02
  1.9751988e-01   3.8486782e-02
 -3.2849021e-02   2.1667290e-02
 -2.8764734e-01   5.8377776e-03
  1.0553222e+00   9.7521327e-02
 -5.8439904e-01   4.9147535e-02
 -6.6530490e-01   6.5730996e-02
 -2.7391228e-01   8.1921600e-02
 -6.8155602e-02   7.1366280e-02
 -1.9175919e-02   5.4113440e-02
  4.0974551e-01   4.3979054e-03
  9.1524571e-01   2.5667973e-02
 -1.3246021e+00   2.0807492e-02
  5.6265760e-04   1.5352458e-02
  3.3990017e-01   1.6454430e-03
  9.8775394e-02   4.1128904e-02
 -1.1242649e-01   9.2979789e-02
 -8.3515920e-02   2.4955070e-02
 -7.1243763e-02   2.0619525e-02
 -1.0620663e-01   1.2721146e-02
  5.6460804e-01   1.6865360e-02
  1.1421131e+00   2.9609283e-02
 -7.8332120e-01   9.3267113e-02
  2.4864493e-01   8.4247842e-02
 -6.6115201e-01   5.0495039e-03
 -1.1849314e+00   5.1277891e-02
 -1.5627290e-01   6.7253873e-02
 -2.5937215e-03   4.1719936e-02
  1.7067574e+00   3.1399461e-03
  1.0247678e-01   1.3297528e-02
  1.8518035e-01   8.8422827e-02
 -1.3519146e+00   1.1423171e-02
 -2.4753343e-01   2.2005709e-02
 -6.7651033e-01   2.0696146e-02
 -5.2162135e-01   1.8925946e-03
 -2.8339329e-01   2.8292123e-02
 -7.3158908e-01   5.0127006e-04
  3.5277596e-01   5.9669670e-02
  1.2557534e+00   3.4005083e-02
  9.5866136e-03   3.1108972e-02
 -2.8168923e-01   4.1132156e-02
  1.6857795e-01   1.5649296e-02
  6.4953125e-01   1.9568777e-02
  9.1775984e-01   1.6729459e-02
 -1.0518501e+00   6.7007899e-02
 -5.2513945e-01   3.6852855e-02
 -1.0321187e-01   3.5331134e-02
 -1.0114281e+00   6.0117647e-02
 -2.2213890e-03   7.1894983e-03
  3.5995650e-01   2.0723032e-02
 -2.8590061e-02   7.3567204e-02
 -9.1630125e-01   5.8327965e-02
 -6.2577891e-01   1.0354097e-02
  4.5619685e-02   8.8666938e-03
 -1.4019517e-03   4.9646229e-02
 -1.0563387e-01   8.6029381e-02
  4.3487334e-01   9.5318392e-02
 -2.3644963e-01   4.6433643e-03
 -1.5199240e-01   6.2363405e-02
 -1.6231970e-01   4.5840196e-02
  7.0821458e-01   2.2289256e-02
  4.5565102e-02   2.2287393e-02
 -2.0521431e-01   5.9915457e-02
  1.6550496e+00   9.7249420e-03
  5.2187032e-01   5.0138994e-03
 -1.1692842e+00   5.8462057e-02
  1.3521563e-01   5.7806061e-03
  7.0535704e-02   8.4833264e-02
 -3.7308440e-01   2.8581725e-02
  3.7863785e-01   9.8024823e-02
  3.6171460e-01   1.0958110e-04
 -7.0031011e-01   1.0355862e-02
  1.1384036e-01   1.2944204e-02
  2.7103999e-01   1.7603576e-02
 -1.5933540e+00   7.6319254e-03
 -5.3917915e-01   1.2809353e-02
 -1.8437607e-02   5.9475943e-02
 -4.0086082e-01   7.3754825e-02
 -4.0539500e-01   3.7966818e-02
 -4.0005237e-01   2.2041781e-02
 -5.2179940e-02   3.2520264e-02
 -4.9703583e-01   3.4325171e-02
  6.0948670e-01   5.8253944e-02
 -2.6724424e+00   9.0377184e-04
  3.0147281e-02   2.3169778e-02
 -2.7849355e-01   3.3284318e-02
 -1.5440384e-01   5.8793161e-02
 -1.8726762e-02   6.1702922e-02
  1.1303980e-02   4.8684321e-02
  4.5199028e-01   4.6649832e-02
 -2.6005410e-02   2.9127559e-02
 -5.8668458e-01   2.2931390e-02
  2.3566295e-01   5.6360051e-02
 -9.8450965e-01   4.1925222e-02
 -1.3567847e-01   4.9040541e-03
 -5.9138381e-01   8.8681923e-03
  5.5019546e-02   1.8163435e-02
 -1.2186933e-01   4.8934628e-04
 -1.3454841e-01   5.0448352e-03
 -6.1602276e-02   2.2931313e-02
  8.4778868e-02   1.8650355e-03
  1.0358035e-01   3.7428979e-02
 -3.8558510e-01   1.9873049e-02
 -1.2613129e-02   1.0214453e-02
  1.5390432e-01   1.8791568e-02
  1.3773896e+00   1.8376615e-02
 -5.8842343e-01   2.1422075e-02
 -9.7349948e-01   3.5071019e-02
 -3.1930262e-01   9.9593274e-02
  7.2972697e-01   5.9817865e-02
  2.1120772e-01   1.9281253e-02
  1.0234433e+00   3.1391844e-02
 -5.6424189e-01   5.3214770e-02
  3.9761370e-01   3.3466391e-02
 -1.7952992e-01   4.7463559e-02
 -1.0087940e+00   5.0853468e-02
 -2.8828464e-02   9.5306315e-02
 -1.5309712e-01   6.6687196e-02
 -3.7549344e-01   6.9431425e-04
 -3.2579663e-01   4.2120293e-02
 -1.0770998e-01   6.9364570e-02
  5.2679658e-01   1.2145668e-02
  9.9177383e-02   5.0339084e-03
  6.4848441e-01   1.2661361e-02
  1.8433081e-02   3.6196986e-03
 -5.0292212e-01   1.8753830e-02
 -5.7245630e-01   8.7006018e-03
 -2.9840213e-01   9.9058058e-03
 -1.0548003e+00   9.1653699e-03
 -1.8728650e+00   3.3460770e-02
  2.5064781e-01   4.8255816e-02
 -1.5740110e-01   2.4873188e-02
  8.8580704e-01   1.9218413e-02
  5.9124339e-01   7.9202848e-03
 -3.4801769e-01   1.0000000e-01
 -1.6621262e-01   1.5662262e-02
 -9.7434914e-01   7.7302150e-02
 -2.4686657e-01   4.8080407e-02
 -5.2503288e-01   6.7960896e-02
 -7.6325774e-01   2.4673063e-02
 -2.1845620e-02   5.0738186e-02
  1.3874575e-01   4.2029083e-02
 -4.5523636e-02   4.6914745e-02
 -7.7540167e-02   6.2094565e-02
 -5.7752514e-01   2.3979435e-02
 -3.4664983e-01   4.9465638e-02
 -6.2528151e-01   3.3801593e-02
  5.0884828e-02   1.1455446e-03
 -1.0077635e+00   2.7861365e-03
  4.6207523e-01   1.2598162e-03
  7.8957236e-01   7.1545638e-04
 -9.9659407e-01   1.8721978e-03
  1.2868624e+00   3.7073743e-04
 -1.3386278e+00   2.0460854e-03
  5.2198097e-02   5.9381477e-04
 -2.0836084e+00   1.7000182e-03
 -2.6910545e-03   6.8825192e-04
 -8.7908036e-01   7.5935264e-04
  4.2185926e-01   7.0704024e-05
 -1.4458750e+00   1.1814736e-03
  2.9819829e+00   1.0029265e-03
  1.1029294e+00   7.5408309e-03
 -1.4970905e+00   7.6981755e-03
 -1.9051305e+00   1.4455688e-02
  4.5367703e-02   3.2444604e-02
  3.9549229e-01   3.3639509e-02
 -6.4023328e-01   1.3542931e-02
 -7.7629995e-01   3.3810365e-03
 -3.4859022e-01   1.1171846e-02
  1.4327441e+00   1.0737871e-02
  4.0004709e-01   7.3571629e-03
 -1.8561891e+00   1.9704800e-02
  3.0889201e+00   1.2105396e-03
 -5.4556590e-01   4.7220164e-03
 -3.5103256e-01   6.1689401e-03
 -6.1663914e-01   9.6987672e-03
 -6.1663628e-01   1.2159121e-03
  6.3777161e-01   3.6640640e-03
 -1.1074109e+00   2.2860363e-02
 -8.4427762e-01   3.6552183e-02
 -1.1853887e+00   6.6442150e-03
  1.0971224e+00   1.5674389e-03
  1.6591927e+00   6.4789639e-03
  1.0622897e+00   8.8967467e-03
 -4.5578763e-01   6.4435177e-02
  2.2071117e-01   1.0867692e-02
 -1.8918468e+00   5.5976612e-03
  7.5394219e-01   1.0575052e-02
 -5.3432214e-01   8.2240766e-03
 -1.6341707e+00   9.6183149e-03
  2.0720328e-01   1.4914060e-03
  2.0628583e+00   4.8527434e-03
  1.7764030e+00   2.4559319e-02
 -2.4330257e-01   6.7656688e-02
  7.2254694e-01   6.0064900e-03
 -3.8940686e-01   3.6169901e-03
 -3.1221974e-01   1.8100180e-02
 -3.5070658e-02   1.3905645e-02
 -4.7990707e-01   1.4611689e-02
  3.9865394e+00   1.2681383e-02
 -3.1398430e-02   8.2380749e-02
  7.2879308e-01   1.0823646e-02
  8.8447012e-02   2.9643629e-02
 -8.8531971e-01   4.2759806e-02
 -1.9583868e+00   5.1183631e-03
 -5.7188416e-01   9.6434861e-02
  9.0771191e-02   1.4212201e-03
 -5.4814959e-01   4.3927549e-04
 -3.7242851e-01   5.4393556e-02
  2.3757192e-01   1.0042454e-02
  1.3389137e+00   1.4052231e-02
 -1.2134628e-01   6.4954452e-02
 -7.5158983e-01   2.5945367e-02
 -5.6166905e-01   4.0834960e-02
 -5.2000862e-01   1.0231950e-02
  6.9975090e-01   8.0155849e-02
  6.4607346e-01   5.8078854e-03
  5.2167666e-01   5.5834982e-03
  1.2906029e+00   5.2772849e-03
  4.4306312e-02   1.8645462e-02
  8.5240144e-01   8.5298024e-04
 -1.4632897e-01   3.6446515e-02
 -4.5990780e-01   6.7676805e-02
 -6.6960365e-01   4.1295208e-02
 -1.8061311e+00   6.3621434e-03
 -4.1960227e-01   2.9744662e-03
  7.8296667e-01   6.6775186e-03
  9.8052943e-01   9.8922886e-03
  1.0298766e+00   1.4423288e-02
  3.2715040e-01   6.5940470e-02
  2.4089629e-02   3.2533396e-02
  1.1929529e+00   1.5772257e-02
 -4.8452964e-01   7.0505150e-02
  2.1510424e-01   5.3188499e-02
  3.4958568e-01   7.8686886e-02
  2.4833314e-01   6.9751434e-02
 -1.3624084e-01   8.6946994e-02
  1.4576018e-01   3.6704287e-02
 -1.1383673e+00   9.0537155e-03
  3.2035206e-02   4.2464923e-02
  2.5152647e-01   1.2304749e-02
  3.8602680e-01   3.4353800e-02
  2.7476838e-01   2.3156634e-02
  4.7829241e-01   7.8616932e-02
 -2.3259766e+00   1.9442927e-02
  3.7259001e-02   3.8870063e-02
  2.2600740e-01   4.1389860e-02
 -1.9672641e-01   1.0088222e-02
  1.4792731e+00   5.4299776e-03
 -1.1375137e-01   1.9489681e-02
  3.4062332e-01   1.5325032e-02
  2.8788750e+00   3.1027410e-03
  1.9029182e-01   5.8981929e-02
 -2.0924214e-01   7.1070090e-02
 -5.9958738e-01   7.4118651e-02
  7.6861578e-01   2.4395876e-02
 -5.8484441e-01   1.2252961e-02
 -1.8253566e-01   4.2846490e-02
 -2.7215239e-01   1.1367955e-03
  1.8899135e-01   6.8801992e-02
 -2.2754522e-01   5.8834877e-02
  3.5229909e-01   2.1600971e-02
  7.8718984e-01   5.3660575e-02
  8.2067889e-01   2.6112655e-02
  1.0979971e+00   3.2335435e-04
  9.0454423e-01   2.8427765e-02
 -4.3727633e-02   1.5372450e-02
 -2.9326710e-01   3.1726763e-02
 -1.2916749e+00   1.7522885e-02
  7.8786784e-01   2.1038407e-03
  2.4848385e+00   1.0438621e-02
  1.2567984e+00   4.0472835e-02
  4.7408585e-02   3.4250669e-02
 -1.0699600e+00   2.5986565e-02
 -1.2598151e-01   6.2148175e-03
  3.6667749e-02   5.3096646e-03
  3.6230236e-01   1.1756515e-02
 -1.5372258e+00   2.5741444e-03
 -1.5158291e-01   6.1947744e-02
  4.2545867e-01   6.7123711e-02
 -9.6908413e-02   6.7880428e-03
 -1.2580426e-01   4.8126228e-02
 -1.2870310e-01   1.4370059e-02
 -7.2316152e-01   8.3571456e-02
 -7.8958638e-02   2.0606868e-02
 -1.0259089e+00   5.1377993e-02
  3.5845408e-01   8.4305272e-02
  1.0761267e+00   3.1542659e-02
  4.6314135e-01   7.0440739e-02
 -8.6545020e-01   2.2723967e-02
  3.0414891e-01   1.5308953e-02
  1.1844850e-01   2.7965030e-02
  9.3900204e-01   9.0163797e-03
  8.1337821e-01   6.5305294e-04
 -1.5998710e+00   7.5509930e-03
 -2.2433466e-01   2.2670306e-02
  4.6210346e-01   7.0239054e-03
 -3.7215856e-01   4.5465838e-02
  2.8412390e-01   6.2586039e-02
  1.0907435e+00   6.1990018e-04
 -3.4186512e-02   5.3996321e-02
  1.4372003e+00   3.1700648e-02
 -2.2666799e-01   1.0705533e-02
  2.7185225e-01   3.3154316e-02
 -3.3884144e-01   1.2180092e-02
 -2.2942832e-01   3.4391593e-02
  7.7999853e-02   1.4157226e-02
 -1.5582820e+00   2.9191205e-03
 -2.8840971e+00   8.0883910e-04
 -1.4011542e+00   7.8882016e-03
  1.1317556e+00   3.4718239e-03
  6.6797036e-01   7.6875663e-03
  2.4326520e-02   3.2430451e-02
 -2.7947515e-01   8.6157136e-02
  4.3275610e-01   4.5455275e-03
 -1.6420059e-01   2.8153658e-02
 -3.5381418e-01   7.3943282e-03
 -1.3862216e-01   1.6859937e-02
 -5.3972088e-02   9.3174472e-02
  1.5882857e-02   5.4284971e-02
  3.3501685e-01   3.6860488e-02
  1.6204551e-01   5.9143167e-02
 -5.0506240e-01   2.3580244e-02
 -6.8907535e-01   9.9150389e-03
  3.6213619e-01   5.4101318e-02
  2.6188308e-01   3.3435803e-02
  1.4281178e-01   2.9104601e-03
  3.9407304e-01   2.2368211e-02
  1.0503532e+00   2.4497067e-03
  2.9412830e-01   4.4528600e-02
  7.2226608e-01   1.2603231e-02
 -1.1401769e+00   8.4599983e-03
  2.5842413e-01   7.8223972e-03
 -2.9491386e-01   1.3166241e-02
  1.4720404e-01   2.4997408e-03
  2.4284305e-02   2.6902530e-02
  9.5339048e-01   1.3616085e-02
  1.5677128e-02   1.9085694e-02
 -4.9459521e-02   6.4924367e-02
  5.4549456e-01   2.8158468e-03
 -3.6345948e-02   2.3193829e-02
  2.1758275e-01   7.0124380e-02
  5.0912970e-01   2.6138140e-02
  4.4774073e-01   7.3644497e-02
  1.7780146e-01   3.6022369e-02
  3.7945414e-01   1.3339989e-02
  2.0721626e-01   4.3644864e-02
 -6.4095992e-01   1.5889447e-02
  8.1212854e-01   2.3230393e-03
 -2.7768159e-01   2.9763943e-03
  7.8352642e-01   9.3142189e-02
  4.6886450e-01   3.4027975e-02
 -3.0621892e-02   3.2798070e-02
  1.2282573e+00   2.6544994e-02
  1.4925347e-01   3.0281259e-02
 -2.9260567e-01   1.2238463e-02
 -5.2766001e-01   1.6013365e-02
  4.2367446e-01   4.1693058e-02
 -3.1208792e-01   7.4540891e-02
  4.4016924e-02   4.9274515e-02
 -1.9021694e-01   1.8997742e-02
  3.9413814e-02   8.8307615e-03
 -8.9684147e-01   2.0633475e-03
  1.5301233e-02   7.4406266e-02
  5.6931305e-01   3.1554781e-02
  4.7574428e-01   4.1979153e-02
  2.7465630e-01   4.2723000e-02
 -3.8160270e-01   6.7606449e-02
  5.6646633e-01   1.5362505e-02
  1.2434799e-02   1.8661156e-03
  2.7955052e-02   1.0193279e-02
 -8.3079380e-01   1.3683377e-02
 -5.6345671e-01   4.1563839e-02
 -5.1451407e-02   1.2433790e-02
  8.0722427e-01   3.8909156e-02
 -1.2577371e-01   8.9604795e-02
 -5.8007365e-01   1.0948816e-02
  1.8344328e-01   4.4746898e-02
  4.0880221e-01   4.7244139e-02
  1.1785103e+00   2.4412530e-03
 -5.2996111e-01   9.8749191e-02
  3.3717486e-01   1.4796589e-02
 -5.0779831e-01   1.4618345e-02
 -5.9220797e-01   9.2740236e-03
 -2.4495726e+00   3.9456035e-03
  2.5142059e-01   5.2515309e-02
  2.0395450e-01   4.9286902e-02
 -6.4492062e-02   1.1290601e-02
 -1.1382592e-01   2.9715315e-02
  4.4584808e-01   4.1532256e-02
  5.5531457e-02   4.5560252e-02
 -3.0233860e-02   4.2669956e-02
 -4.9814370e-01   2.9904263e-02
 -9.6671477e-02   4.6614192e-02
  1.0356716e-01   2.9278998e-03
 -4.0789214e-01   1.8387675e-02
  5.9607875e-01   9.1346413e-02
  4.4473041e-02   4.8073430e-02
 -9.4744205e-01   2.2619264e-03
 -8.6234666e-02   4.6594519e-02
 -3.0151830e+00   1.8652031e-03
 -2.3006234e+00   3.5956148e-03
 -8.0910546e-01   8.1807636e-02
  6.5704691e-01   8.4178545e-02
 -3.1384009e-01   8.1251692e-03
  6.0472149e-02   9.3937472e-02
  1.1006738e-01   2.5125345e-02
 -1.0258569e+00   8.9675887e-03
 -2.8880812e-02   2.2818789e-02
 -8.7962675e-01   4.5112423e-03
  3.5427675e-01   4.2353207e-03
  1.1503822e-01   8.0075478e-03
 -8.7157559e-01   2.8741437e-03
  9.0633672e-01   4.1720498e-04
 -7.1195334e-01   7.9379627e-04
  4.8041973e-02   5.8005951e-02
  6.7557819e-02   1.0246166e-02
  7.1448797e-01   9.9526765e-04
  3.6864790e-01   1.3646477e-02
 -3.9532382e-02   2.9267007e-02
  1.4220510e-01   4.3748040e-03
  7.6348191e-01   9.1061838e-02
  3.5511193e-01   2.7648512e-02
 -2.6918080e-01   7.7703580e-02
  4.2482513e-01   6.3563108e-02
  1.9749396e+00   7.7297706e-03
  1.6169594e-01   2.6832202e-02
  1.9527349e-01   7.8481771e-03
  9.2948470e-03   1.9661009e-02
 -2.2945289e-01   3.1100212e-02
  2.0959286e-01   7.7643692e-03
 -1.7420821e-01   8.7284192e-02
  2.0253001e-02   8.3697915e-02
 -8.5153714e-02   9.4826713e-02
  2.8601602e-02   1.2363994e-02
 -4.2342448e-01   7.1253583e-02
 -7.3115826e-02   1.3411069e-02
  2.0022896e-01   1.5922191e-02
 -2.3701668e-01   6.0545199e-02
 -6.4222729e-01   1.4342562e-02
 -1.7001960e-01   9.8212987e-02
 -1.6800045e+00   6.8061096e-03
  1.5375556e-01   2.9225325e-02
  5.5316244e-03   9.1567123e-03
 -5.8409542e-01   9.4594276e-03
  1.2020762e-01   2.0579360e-03
  6.8586338e-01   2.8631940e-02
  4.9251089e-01   3.6631972e-02
 -9.1399876e-03   1.8934326e-02
 -9.0776211e-01   3.4567106e-03
  6.1636258e-02   4.7401477e-02
  1.3810705e-01   9.2359185e-03
  1.2238579e+00   4.0229246e-02
  8.9613795e-02   7.2979003e-02
  7.5192720e-01   1.9170940e-02
  6.5593910e-01   3.2941189e-02
 -2.0242633e-01   5.4063365e-02
  2.4413022e-01   3.8017455e-02
 -1.5583168e-01   5.0159253e-02
 -1.1007258e-01   4.0284522e-02
  1.4164400e+00   5.5381477e-02
 -7.7929482e-02   9.6925102e-02
  1.9488233e-01   3.1703472e-02
 -1.6896744e-01   3.8658071e-02
 -3.0990917e-02   8.4508024e-03
 -2.6709914e-01   6.6271895e-03
 -8.0230713e-01   9.3825608e-03
  8.9761548e-02   1.9657176e-02
  1.1348011e-01   2.7066275e-02
  6.9887382e-01   4.5282831e-03
  1.5987302e-01   9.1569714e-02
  4.4827098e-01   6.2999383e-02
  4.3502343e-01   1.6367655e-02
 -1.6784342e-02   2.1103349e-02
 -3.2024258e-01   2.4042664e-02
 -3.1250080e-01   3.4332689e-02
 -2.7058280e+00   7.7452259e-03
  5.1792139e-01   8.8052958e-02
 -6.7620212e-01   3.6132280e-02
 -1.9021583e+00   6.7378487e-03
 -1.5869319e-01   1.0570284e-02
  2.7775289e-02   1.9856110e-02
 -2.4135594e-01   5.1973913e-02
 -4.1662708e-01   7.7886812e-02
 -7.8479327e-02   6.4282365e-02
 -1.2416234e+00   7.7176079e-02
  1.0766577e-01   7.6139651e-02
 -5.0607634e-01   7.0842989e-02
 -6.6271228e-01   2.7017390e-02
  4.6503183e-01   4.1078366e-03
 -1.5560547e-01   1.1846405e-02
 -4.5783025e-01   5.8411278e-02
 -2.1322984e-02   3.6918301e-02
 -2.3330560e-02   5.2865326e-02
  7.5932372e-01   5.2753087e-02
  3.1882551e-01   2.0955799e-03
  1.5841715e-01   1.8950429e-02
 -1.9820978e-01   2.6909290e-02
 -1.0411221e+00   2.0240961e-02
 -4.7396415e-01   1.0999496e-02
  5.4814450e-02   1.0757762e-02
 -2.7451101e-01   3.0686008e-02
 -4.9449503e-01   1.6144343e-02
  5.2698053e-02   3.6603822e-03
  4.5644302e-02   4.0926296e-02
 -7.2826095e-02   1.7121345e-02
 -2.5755426e-01   1.5136299e-02
 -8.4555529e-02   9.0381563e-02
  5.6397235e-01   3.1953841e-02
  2.6114674e+00   9.6458192e-05
  6.3438481e-01   5.2289497e-03
 -3.4020445e-01   1.9159675e-02
  1.2211490e+00   1.4847665e-03
  4.1112390e-01   6.3511349e-02
 -2.1438269e-01   5.3962786e-02
  1.1592539e-01   4.4823181e-02
 -1.8095019e-01   1.1043410e-02
  1.9155408e-01   2.1989806e-02
  5.7248056e-01   1.9007200e-02
 -4.0388724e-01   6.9428198e-02
 -1.5012316e+00   2.5641689e-02
  3.1312120e-01   1.5009334e-02
  2.3037226e-01   1.4942389e-02
  4.1507626e-01   2.0298643e-02
  4.8644671e-01   1.1256859e-03
  5.6477338e-01   2.4383029e-03
 -1.1129888e+00   1.8972517e-03
 -1.1876805e-01   3.2325823e-02
 -1.5026818e-02   3.4355521e-02
 -1.9534898e-01   7.0455777e-03
 -1.4705047e-01   8.6552858e-02
  3.1420529e-01   6.7722569e-03
  4.7995865e-01   6.0301940e-03
  6.7301470e-01   1.6649600e-02
  5.9637326e-01   3.8027991e-02
 -8.8783967e-01   2.3283821e-03
 -8.0976850e-01   3.1705745e-02
  3.4027866e-01   1.0413013e-03
 -5.7477337e-01   4.2837057e-02
 -5.8919717e-02   1.5776999e-02
 -3.6842063e-01   1.1830972e-02
  1.1472002e-01   9.8836705e-02
 -7.0799369e-01   2.9065166e-02
 -5.7367951e-02   5.0940178e-03
  4.2406178e-01   5.3574857e-03
  5.9012628e-01   4.1078448e-02
  8.1411409e-01   4.3931853e-02
 -6.8285495e-01   3.0351453e-02
  3.1055613e+00   7.4913987e-04
 -8.5078251e-01   8.9271376e-03
 -2.5338000e-01   1.9624565e-02
 -2.2241588e-01   3.3239946e-02
  4.2697105e-01   4.3159310e-02
  5.3279632e-01   2.1141609e-02
 -2.2965977e-02   1.5427134e-02
 -9.8192066e-01   1.1552880e-03
 -2.2594714e-01   1.1775904e-02
  2.5803831e-01   1.2544546e-03
 -3.5680361e-02   2.3424206e-02
  2.0816123e-02   1.4584467e-02
 -2.5774613e-01   3.7959024e-02
  2.2376798e-01   2.1596488e-02
  7.6684815e-01   1.5831241e-02
  2.9884887e-01   1.4922369e-02
 -5.6964602e-02   2.4856007e-02
  5.1639205e-01   7.4430229e-03
 -9.0727754e-02   3.8149223e-02
  5.3034443e-01   1.0182838e-02
  4.2708245e-01   6.7828834e-02
  3.6729828e-02   1.7954361e-02
  2.1283531e-01   7.0721678e-02
 -7.2667736e-01   5.4169507e-03
  5.2826905e-01   3.5060507e-03
  2.1138024e-01   5.1360037e-02
 -5.6177758e-02   7.3727392e-02
  6.8674248e-01   3.4042284e-02
  1.0439169e+00   5.2027974e-02
 -1.2160474e-01   4.3961637e-02
  2.7660561e+00   1.8331279e-03
 -2.6015362e-01   3.3387896e-02
 -3.7279002e-02   6.8891151e-03
 -7.8225695e-02   2.1850724e-02
  1.3726820e-02   2.2325672e-02
  1.4350426e-01   9.0420723e-02
 -2.7690446e-01   3.0132724e-02
 -3.3499461e-01   2.7602430e-02
  5.1326567e-01   8.7503856e-03
  1.0241992e+00   8.3496068e-03
  1.2383891e+00   7.1295783e-02
 -7.1350968e-01   2.4833563e-03
 -5.2409772e-02   9.5767369e-03
 -3.1694421e-01   6.3257506e-03
  3.1716365e-01   6.0398400e-02
 -4.1550007e-01   2.9809330e-02
  4.9380627e-01   1.7831301e-03
 -4.2303956e-01   1.3399777e-02
 -2.2307150e-01   3.2161143e-02
  5.1559842e-01   1.0333071e-02
  2.3983879e-01   7.7411756e-02
  1.8405975e-01   5.1098473e-02
  6.1635531e-02   5.1346768e-02
 -7.8379661e-02   7.8164555e-02
 -3.2848552e-01   3.5174038e-02
 -3.0174447e-02   2.7284816e-02
 -4.4679698e-01   3.5973299e-02
 -3.2645720e-01   7.0656113e-02
 -8.8715285e-01   3.7792608e-02
 -1.2299923e+00   1.6480997e-02
  1.4380322e+00   1.5637511e-02
  4.6892455e-01   2.4731383e-02
 -1.8438737e-01   1.7734064e-02
 -5.8170623e-01   6.1149400e-02
  4.7772267e-01   2.4788942e-02
 -3.4718841e-01   1.0053985e-02
  5.3893274e-01   1.0128383e-02
  4.0521771e-02   2.7149562e-02
  2.5854862e-01   3.2200441e-02
 -1.2749040e-01   7.5731226e-03
 -1.4727981e+00   9.9637138e-04
  2.4996205e-01   9.6889451e-04