 -1.1418499e-01   3.5428505e-02
  2.0207481e-01   1.4145514e-02
 -7.4188983e-01   7.7749360e-03
  7.8227705e-01   2.9554253e-02
 -6.5636122e-01   5.2715479e-03
  1.3382071e-01   3.7356369e-02
  1.4288576e+00   1.5437406e-02
  2.9316509e-01   5.0018199e-02
  2.0162371e-01   3.9118566e-03
  1.7521502e-01   2.7978225e-02
 -3.7162427e-02   3.0659873e-02
 -3.5945025e-01   3.4953162e-02
  4.4972026e-01   7.7787012e-02
  3.7466350e-01   1.8000446e-02
  1.9437144e+00   1.9589976e-04
  1.2437999e+00   3.7715033e-02
 -4.3122223e-01   2.4518436e-02
 -6.3374984e-01   1.2395934e-02
  3.1187791e-01   8.1680395e-02
 -2.6738230e-02   8.1956245e-02
  2.8252858e-01   1.7526850e-02
  3.3196598e-01   9.5982864e-02
 -1.7271560e-01   1.6895849e-02
 -1.6538119e-01   3.2044776e-02
 -5.2218372e-01   2.3577215e-02
 -6.1261469e-01   1.6750416e-02
 -1.7040423e-01   8.5129201e-02
  3.7429106e-01   2.6158607e-02
 -1.9423386e-01   3.6084592e-02
  5.6183499e-01   2.8560797e-02
 -9.2105746e-01   7.5102121e-02
 -5.1501644e-01   3.3609767e-02
 -2.5810656e-01   2.4913026e-02
  3.1786650e-01   1.4106259e-02
  2.1003866e+00   1.1594011e-02
  1.2738832e+00   3.7283637e-02
  9.1362876e-01   1.0637731e-02
  8.5900128e-01   1.6100580e-02
  3.8019317e-01   2.4248889e-02
 -3.3963364e-01   8.5030824e-02
 -1.9025158e+00   7.3720240e-03
 -3.3137870e-01   6.2564671e-02
  1.3038728e+00   2.4028776e-02
 -9.4095254e-01   8.0176465e-02
 -5.3265047e-01   2.6152220e-02
  3.3346233e-01   5.6731641e-02
  1.3553171e-01   4.4457917e-03
 -1.0703610e-01   2.7458712e-02
  1.5778022e+00   1.5323500e-02
 -5.1704830e-01   3.8814429e-02
  3.8985252e-01   9.5788158e-02
  6.4809632e-01   6.1217479e-02
 -2.1171243e-01   1.8935015e-02
  8.3892271e-02   7.6600816e-04
 -1.4392944e-01   1.8736990e-02
 -2.9240742e-01   1.1963639e-02
  3.0509266e-01   6.2824965e-02
 -4.0079883e-01   3.5307191e-02
  2.9499521e+00   7.3848902e-03
 -8.8320673e-01   2.2187570e-02
  5.6463164e-01   2.2521980e-02
 -4.8673961e-01   4.0636398e-02
  1.5191970e-03   1.5965309e-02
  8.0571139e-01   2.0728400e-02
 -1.7112397e+00   5.9032645e-03
 -4.5612329e-01   1.1070273e-02
 -3.0685350e-02   1.7955953e-03
  1.3400647e-01   5.9092481e-02
 -8.4751844e-01   1.2966203e-02
  1.6980449e+00   4.9650348e-03
 -3.1008121e-01   3.5393395e-02
 -1.0784241e+00   7.8570411e-02
  1.0959089e-01   9.7575709e-03
 -1.8216783e-01   4.4776279e-02
 -4.3867227e-02   3.0789159e-02
 -1.2966005e+00   8.9747585e-02
  2.3903374e-01   1.4137752e-02
 -1.2592390e+00   2.7055847e-03
  1.6578479e-01   3.7287183e-02
 -2.9108238e-01   7.2400756e-02
 -3.2869431e-01   3.1395596e-02
 -2.3992518e-01   4.0437277e-02
  2.9944044e-01   2.2936512e-02
 -1.5344284e+00   5.2830549e-03
  2.8759268e-01   3.0833917e-02
  4.2805952e-01   2.2632979e-02
  3.0506057e-01   5.9244141e-02
 -1.5461779e+00   7.5397789e-02
  6.3801998e-01   1.8551838e-02
  7.3862737e-01   2.4828773e-02
  1.5031281e-01   2.0728393e-02
 -9.8999642e-02   1.9459922e-02
  8.2120496e-01   4.3988179e-02
  6.5377885e-03   2.4855377e-02
 -1.4161102e+00   2.1234494e-02
  2.9663101e-01   2.9300492e-02
 -5.0503962e-02   1.4391797e-02
 -6.2472504e-01   2.4373889e-02
 -2.0907401e-01   5.6400649e-02
  7.8077412e-01   2.4116956e-02
 -7.1508139e-01   5.0624274e-02
 -1.0405711e+00   3.8934406e-03
 -5.4289180e-01   2.3426926e-02
 -4.1958931e-01   9.3421511e-02
  3.7721187e-01   6.5333575e-02
 -3.9610490e-01   3.8540806e-03
  1.4749104e-01   1.7908325e-02
  8.2355452e-01   9.4577402e-02
 -8.4283672e-02   5.0998252e-02
 -4.2406121e-01   5.9922654e-03
 -2.1653751e-02   9.3352810e-02
  1.2596217e+00   7.3810602e-03
  1.4714740e-01   6.0080167e-02
  1.9897604e-01   3.1352941e-02
 -1.4924070e-01   4.6393815e-02
 -1.5998797e+00   2.3361662e-02
  2.6558062e-01   2.8079813e-02
 -4.9097245e-03   4.0426899e-02
 -1.4243005e-01   3.9093293e-02
 -5.0567295e-02   6.0237855e-02
 -2.2020149e-01   8.3439767e-02
  3.0864823e-01   5.8035973e-02
  4.4794476e-01   5.5713549e-02
 -1.0901793e-01   6.2679917e-02
 -3.0932942e-01   2.8410092e-02
 -1.3663291e+00   4.0639918e-03
  3.3776346e-01   2.1360046e-03
 -4.4568893e-01   5.3506337e-02
 -1.4747329e+00   9.3880408e-02
 -8.5770130e-01   9.1477327e-02
  1.5785265e-01   5.9947297e-02
 -6.8834299e-01   4.2947731e-03
  2.2998445e-01   8.9867517e-02
  4.5724101e-02   4.4505458e-02
  7.2945511e-01   3.0408228e-02
 -1.8662593e-01   3.6129404e-02
  3.5718337e-01   7.6811008e-02
 -2.5393814e-01   4.9032802e-03
  6.9499731e-02   2.1952780e-02
 -7.3218334e-01   6.8560958e-02
  2.4134241e-01   5.5982433e-02
  6.8400538e-01   8.1410386e-02
  1.0820369e-01   7.4752703e-02
 -9.6486948e-02   3.0336568e-02
 -3.0400312e-01   4.5762002e-02
 -1.1004174e-01   1.4074675e-02
  4.8533601e-01   3.1154260e-02
 -4.9073434e-01   4.8328796e-03
  1.2106962e-01   3.1977445e-02
  1.3780792e-01   6.8852261e-02
 -3.8963032e-01   5.6878012e-02
  3.3756036e-01   1.4038703e-02
 -1.3772389e-01   6.1705887e-02
 -1.0102495e+00   1.6277693e-02
  7.1006633e-02   5.5690319e-03
 -3.9957407e-01   9.8660879e-02
 -2.0609561e-02   2.4766622e-02
 -5.6825146e-02   9.9090360e-02
  4.2975582e-02   4.2863589e-02
  6.6054105e-03   2.0656342e-02
  1.2284439e+00   6.2412559e-03
  1.2648265e-01   7.2158508e-02
  8.8641846e-01   8.8170797e-02
  1.8346632e+00   1.2811562e-03
 -8.4118675e-03   6.0600497e-02
 -1.8139167e-01   2.2674231e-02
 -9.8637613e-03   6.4526317e-03
 -5.7045835e-01   2.0624725e-02
  5.2154112e-01   8.0265909e-02
  4.8274261e-01   2.9023949e-02
 -1.4592431e-02   2.7141813e-02
  5.8607888e-01   7.2375257e-03
  8.0860123e-02   4.7691539e-03
  2.0872083e-02   2.8800331e-03
 -2.7141826e+00   9.1768987e-03
 -2.2948210e-01   1.8506413e-02
  1.2592956e+00   2.6265591e-02
 -4.6629968e-01   1.6821535e-02
 -1.7714335e+00   7.6357713e-03
 -1.1891571e-01   4.0506637e-03
  1.0646231e-01   1.3512266e-02
 -1.0375518e+00   7.2159343e-03
  9.5693976e-01   4.4288155e-02
 -1.0250471e+00   6.3734618e-03
  3.9500162e-01   2.6868066e-02
  1.2407552e-01   1.3734805e-02
 -5.2319902e-01   2.2581235e-02
  1.4327696e-01   6.1530497e-02
  2.4977632e-01   3.8816974e-02
  1.7346120e+00   7.8608012e-03
 -3.5037148e-01   1.4637226e-02
 -7.2894663e-01   6.2027290e-02
  3.7056392e-01   2.5684152e-02
 -3.1180248e-01   2.3470752e-02
  5.6679089e-02   1.8098596e-02
  1.4449736e+00   5.2231774e-03
 -3.8591346e-01   5.2652445e-02
 -2.8176910e-01   2.8690672e-03
 -1.0957830e-01   6.4965270e-02
  8.9899415e-01   1.9537739e-02
  4.1587517e-02   2.7890092e-02
 -9.1021145e-03   3.7197489e-02
  6.1191612e-01   1.3569272e-03
 -7.4695057e-01   2.2025142e-02
  1.7004001e-01   2.8498899e-02
  8.0697000e-01   2.6993673e-02
  8.4415460e-01   5.4769795e-02
  2.4220083e+00   3.4207527e-03
  3.4344643e-02   5.8124054e-02
 -2.1054127e+00   1.5503514e-03
 -4.7591664e-02   2.5890870e-02
  3.0729008e-01   2.5272526e-02
 -3.7282538e-01   8.5847430e-02
 -6.1270571e-01   9.3342885e-03
 -1.0610928e-01   2.0385480e-02
 -9.9680233e-01   7.8621292e-03
 -6.3660336e-01   5.5076741e-02
  9.6479768e-01   1.7540878e-02
 -1.0697894e+00   2.9268719e-02
 -7.6806240e-02   2.3484391e-03
 -7.5305122e-01   8.6890787e-02
  3.2133618e-01   4.8715960e-02
 -4.1284880e-01   1.8980708e-02
 -6.3942574e-02   8.0827311e-02
 -1.3239367e-01   1.4389142e-02
 -9.8255140e-01   2.6937870e-02
 -3.9908209e-01   4.4629332e-02
 -1.2784364e+00   4.9164137e-03
  3.2945859e-01   1.0705397e-02
  3.4487528e-01   2.4224339e-02
 -3.3804694e-01   6.1011117e-02
 -2.4049686e-01   6.4310350e-02
 -1.6922653e+00   1.9219591e-03
 -7.2495836e-01   2.8945569e-02
 -2.2815144e-01   6.2306866e-02
  2.4659405e+00   1.7286889e-03
  1.0986092e+00   5.9601292e-02
 -3.5309926e-02   1.6198263e-02
 -3.0005012e+00   7.3070643e-03
  3.4077734e-01   3.9155181e-03
  1.0663175e-01   5.6092277e-02
  4.8884222e-01   2.5262099e-02
 -4.0030921e-01   2.2551985e-02
  1.0232186e+00   2.8826470e-02
  2.1369094e-01   2.5213387e-02
 -5.6364363e-01   3.8363531e-02
 -7.1667123e-01   6.6037141e-02
 -3.3835429e-01   1.1782558e-02
  3.4843117e-01   4.5094557e-02
 -2.1181223e-01   5.4198381e-02
  1.1849789e-01   1.8886508e-02
  8.5964859e-02   3.8603846e-02
  3.3578709e-01   3.9402753e-02
  4.3307301e-01   2.1233672e-02
  4.6335676e-01   6.0616817e-02
 -2.8410265e-01   1.3911949e-02
  4.3821150e-01   1.6488984e-02
  2.4818636e-01   5.1878363e-02
  1.4136164e-01   2.3279851e-02
  1.9662072e-01   1.0141189e-02
  2.3534698e+00   1.5413598e-03
 -4.9427420e-01   7.4709669e-02
 -1.6185993e+00   1.1618178e-02
 -1.7146499e-01   3.9796453e-02
  1.0229104e+00   4.0921802e-03
 -8.0187684e-01   8.3535844e-03
 -7.1270835e-01   6.5889284e-02
 -5.9006965e-01   5.3478312e-03
 -4.5356613e-01   5.2600216e-02
  1.3551672e-01   2.0463713e-02
  1.2483190e-01   2.9234441e-02
 -6.6597891e-01   4.0334105e-02
 -3.7308097e+00   7.3734983e-03
 -1.6113049e-01   4.8019681e-02
  9.6258417e-02   2.9521694e-02
  1.0446700e-01   1.6940663e-02
  1.0492626e+00   5.8433007e-02
 -4.4907436e-01   3.1563509e-02
 -2.3543313e+00   9.5054917e-03
 -3.1407261e-01   8.7549202e-02
 -3.9440888e-01   2.3645798e-02
  2.8351886e+00   3.2665257e-03
 -3.0088732e-01   1.4893092e-02
  6.3525528e-01   8.8827945e-02
  2.6499051e-01   9.8025866e-02
 -1.0822152e-01   6.6746294e-02
  1.1556553e+00   2.0643400e-02
 -1.5500857e+00   7.1340902e-03
  2.8546259e-01   4.2733077e-02
 -5.4741776e-01   7.0852630e-02
 -7.5826967e-01   1.5945997e-02
 -6.0485024e-02   4.3827590e-02
  9.7555749e-02   3.8906328e-02
 -6.9241717e-02   9.2894979e-02
  3.4382233e-01   8.3337493e-02
 -6.1692303e-01   1.1676753e-02
 -6.6183501e-01   4.9731337e-02
  3.8838781e-02   1.6214682e-02
 -2.4529588e-01   6.9266178e-02
 -4.1197804e-01   4.3009158e-02
 -2.0799463e+00   8.3757648e-03
  7.4104115e-02   2.8092152e-02
 -4.1754398e-02   3.9096817e-02
 -4.1726491e-01   1.2185912e-02
 -2.9551932e-01   3.0218231e-02
  1.7345816e-01   3.8440076e-03
  5.6091636e-01   1.6258493e-02
 -7.6634741e-01   5.0609995e-02
  4.3117866e-01   1.0487289e-02
  8.6750048e-01   3.1168330e-02
  1.7997719e-01   1.2290863e-02
 -3.8999304e-01   2.2188844e-02
  2.2727594e-01   1.3235753e-02
 -1.0906522e+00   5.6496307e-02
 -2.6282489e-01   1.9841965e-02
  3.2361507e-01   3.5871513e-02
 -3.7889481e-01   3.1832609e-02
 -5.0173849e-01   3.1232741e-02
 -2.2989114e-01   5.6512315e-02
  3.5804752e-01   9.9754050e-02
  1.1876716e-01   2.9580891e-02
 -3.3079401e-02   9.6038364e-02
  1.4947002e-01   4.7920793e-02
 -8.5333604e-01   8.8791057e-02
  3.3783424e-01   7.9281740e-02
  2.0144887e+00   8.5979693e-02
 -5.8267558e-01   6.2767819e-02
  3.0299863e-02   1.1429492e-02
  3.3767858e-01   6.5860130e-02
 -2.5890195e+00   2.9746095e-02
 -6.9155395e-01   1.4437150e-02
  7.1361816e-01   2.3919988e-02
 -3.3398449e-01   5.8099382e-02
 -1.7640044e-01   5.7583168e-02
 -4.0064481e-01   3.7976794e-02
 -9.0232287e-03   6.1856221e-02
 -3.8456354e-01   1.7917352e-02
  5.4237944e-01   3.2501969e-02
  1.4299583e+00   1.6986322e-02
 -1.0729866e-01   9.8487139e-02
 -5.0746924e-01   4.1058522e-02
 -6.9250429e-01   5.3714486e-03
  1.0406379e+00   6.5036081e-02
  5.1886219e-01   6.2057041e-02
  2.4043126e-03   3.6426350e-02
  1.6556567e+00   2.7171106e-03
  7.3408030e-02   1.9084718e-02
 -1.9936721e-01   4.1058723e-02
  5.1062131e-01   4.7980286e-02
 -7.1218157e-01   9.5233386e-03
  2.2499916e-01   3.6472131e-02
 -6.8799067e-01   5.3689559e-03
 -4.8182499e-01   6.3396797e-02
 -7.0202297e-01   3.5819251e-03
 -1.5410521e-02   2.9493021e-02
 -4.6792194e-02   6.0376152e-02
 -8.1037509e-01   5.9009567e-02
 -1.0038675e-01   5.2700955e-02
 -4.7754154e-02   1.8671185e-02
 -2.7478671e-01   2.5109313e-02
  7.4773318e-01   1.4994559e-02
  3.3987578e-02   5.7825197e-02
  5.3107214e-01   1.3491841e-02
  2.3550469e-01   4.1186716e-02
 -2.9390791e-01   3.5116889e-02
 -1.6921879e+00   3.9278377e-02
 -7.6154858e-01   4.4268742e-02
 -1.7178468e+00   9.4661713e-03
 -5.6043905e-01   3.0859163e-02
 -5.4689940e-02   2.3661932e-02
 -2.4502841e-01   2.3946151e-02
 -1.0212505e+00   1.6511649e-02
  8.2369305e-02   2.7294019e-02
  1.2216784e+00   3.7880521e-02
  1.0228434e-01   3.3555631e-02
  1.2475820e+00   7.7741928e-02
  8.2231396e-01   8.9923605e-02
  8.1781322e-01   1.0988692e-02
 -5.9505016e-01   2.1078080e-02
  1.6549186e-01   9.5424220e-02
  1.1034428e+00   1.7744942e-02
  7.5075924e-02   2.0947311e-02
  2.5932277e-02   3.3484623e-02
  5.1437581e-01   3.5585482e-02
 -1.4844695e-01   5.9651978e-02
 -5.0811028e-01   7.9513654e-02
  5.6431216e-01   6.3317247e-02
  3.5061359e-01   6.1357830e-04
 -8.6179870e-01   8.2347794e-03
 -7.6849595e-02   1.2842719e-02
  1.2970296e+00   4.5932527e-03
 -1.7939298e+00   4.4397116e-03
 -7.9069924e-01   8.4722936e-03
 -3.0608490e-01   2.3034675e-02
 -1.3508670e-01   2.5239311e-02
 -5.9006047e-01   4.2496622e-02
 -1.5554787e-01   3.4290642e-02
 -1.1250503e-01   9.4267018e-02
  4.1759932e-01   6.2452581e-02
 -6.7085451e-01   9.2229217e-02
 -2.6219075e+00   6.7814393e-03
 -7.5790882e-01   4.2495523e-02
  2.9013553e-01   1.8347740e-02
  9.3937510e-01   4.5809478e-02
 -2.2660923e-01   4.1962523e-02
  1.2519997e+00   4.7860894e-02
 -2.8100979e-01   4.2028256e-02
  1.2939649e+00   1.0267342e-02
 -1.3262609e+00   2.4859574e-02
 -6.5111503e-02   8.4438458e-02
 -2.5694716e+00   7.1321726e-03
  3.0284256e-01   7.0364121e-03
 -9.8543149e-01   1.4017793e-02
 -1.2640980e-01   1.7800624e-02
 -2.2456403e-01   2.5175950e-03
 -3.3875668e-01   2.7502643e-02
  4.4104081e-01   3.1898480e-02
  3.1867769e-01   6.1676512e-03
  6.6270691e-01   7.6367550e-02
 -1.1624768e+00   6.5658025e-02
 -6.8857580e-01   1.8042533e-02
 -1.3246451e-01   2.8489081e-02
  1.0156082e+00   2.4354473e-02
  1.5600397e-01   1.9738607e-02
  5.2370489e-01   4.9951054e-02
  3.7629142e-01   7.3675863e-02
 -8.8236570e-01   4.4397157e-02
  1.6914129e-01   5.8008548e-02
 -1.2489539e+00   9.7305607e-03
  1.6805238e-01   8.1035703e-02
  6.5304774e-01   2.3119109e-02
  2.0872153e-01   5.2147318e-02
 -3.9978331e-01   5.5934742e-02
 -7.0832908e-02   3.8120449e-02
  9.8660147e-01   3.2761712e-02
 -3.2708347e-01   2.5683907e-03
 -1.6429554e-01   2.0989204e-02
 -1.1142897e-01   6.0336806e-02
 -7.6313250e-02   7.8043230e-02
  8.7153906e-01   1.7269971e-02
  3.0524623e-01   2.9122297e-02
  2.1127516e-01   4.2651659e-03
  6.5078807e-01   4.9263954e-02
 -1.0433924e-01   6.0438197e-03
 -1.1123739e+00   5.1579163e-03
 -1.1663249e+00   4.3490515e-03
 -2.0990067e+00   1.4999404e-02
  1.3832273e+00   6.6418812e-02
  4.9837503e-01   7.8216791e-02
 -6.2346989e-03   3.2713097e-02
  1.8116499e+00   9.4427783e-03
 -4.0111089e-01   7.8679822e-02
 -6.1183155e-01   8.4416261e-03
 -2.9932463e-01   4.6715442e-02
  1.5031821e+00   1.5761882e-02
  1.3319460e-01   5.5507895e-02
 -2.9892737e-01   3.7453122e-02
  5.6784195e-01   2.4839181e-02
  5.6182075e-01   4.7357928e-02
  6.5821952e-01   7.0906468e-02
 -9.2347753e-01   5.9096664e-02
  4.4621024e-01   7.7422023e-02
  4.1232505e-01   3.7314992e-02
  3.5572872e-01   3.8524881e-02
 -4.0145271e-02   1.4003714e-03
 -8.6579508e-01   6.0180249e-03
  5.8103865e-01   1.4517793e-03
  8.1141561e-01   1.7965797e-03
 -9.6337682e-01   2.2194379e-03
  1.2920916e+00   5.4402294e-04
 -1.2889564e+00   2.7690984e-03
  8.4550306e-02   2.0670390e-03
 -2.0082848e+00   6.9058430e-03
  9.5926993e-02   2.0270194e-03
 -9.1122961e-01   9.2531781e-04
  4.3362498e-01   5.0961302e-04
 -1.5120391e+00   1.3944930e-03
  2.9307830e+00   8.6550030e-04
  1.0161337e+00   6.9569438e-03
 -1.9762182e+00   2.9511314e-02
 -1.6422776e+00   9.8950528e-03
  1.9477378e-01   1.8339938e-02
  5.1192284e-01   8.0252076e-03
 -4.4053811e-01   1.6936379e-02
 -1.3411938e+00   1.3934665e-02
  2.4499945e-01   1.1582163e-02
  1.5938114e+00   3.0728059e-02
  5.8083582e-01   5.9489235e-03
 -2.8283877e+00   1.8120447e-02
  3.0681033e+00   5.8051110e-03
 -6.1159372e-01   1.9655347e-02
 -5.1180202e-01   2.1289514e-02
 -3.2658255e-01   9.9135684e-03
 -2.7083537e-01   1.6931714e-02
  4.7494885e-01   1.0081808e-02
 -9.4050699e-01   2.3108361e-02
 -1.1872095e+00   6.8328425e-02
 -1.4658233e+00   2.0996708e-02
  1.3452216e+00   5.9067346e-03
  1.5098366e+00   7.8076124e-03
  8.5193479e-01   1.8494606e-02
 -4.2339809e-02   6.2853813e-02
  6.1752337e-01   3.9368197e-03
 -2.0277686e+00   3.9963974e-03
  5.9190691e-01   2.2097485e-02
  8.9342780e-02   2.0587733e-02
 -1.8468608e+00   1.0719369e-02
  1.5635504e-01   1.6635663e-03
  1.9861902e+00   1.6793841e-02
  1.2772295e+00   2.2940803e-02
 -3.5471153e-01   5.0920725e-02
  1.1452309e+00   1.5093490e-02
 -4.2897046e-01   4.1391240e-03
 -7.6918006e-01   1.2086939e-02
 -9.3538739e-02   2.8369965e-02
  4.4870225e-01   2.8775154e-02
  4.2351122e+00   8.9099333e-03
 -8.4694737e-01   2.6437193e-02
 -2.6600963e-01   1.8692538e-02
 -8.7864804e-01   3.5185259e-02
  1.0505572e-01   7.4472606e-02
 -2.1409888e+00   1.4652466e-02
 -4.1652808e-01   2.7779199e-02
 -9.1307089e-02   2.1731036e-03
 -5.5475682e-01   1.5665508e-03
 -1.0902781e-01   9.1450788e-02
 -6.9714844e-01   2.9438579e-02
  1.4684353e+00   4.2806012e-03
  3.6933419e-01   6.7357793e-02
 -2.0332248e+00   2.6091071e-02
 -9.5263934e-01   3.0860038e-02
 -7.0487535e-01   6.5304739e-03
 -6.9406766e-01   4.6473540e-02
  3.9544836e-01   1.3246327e-02
  9.8814088e-01   1.0179441e-02
  1.5209942e+00   9.0644816e-03
 -2.4515168e-01   3.1840269e-02
  8.3795512e-01   1.2165877e-03
  4.6950990e-01   4.3001454e-02
  1.1434180e+00   4.9698636e-02
 -4.7963968e-01   3.6667414e-02
 -1.4189730e+00   1.5887436e-02
 -1.4572676e-01   8.7163905e-03
  4.0612912e-01   1.0765048e-02
  1.2390068e+00   8.1726173e-03
 -9.7153604e-01   4.0788565e-02
 -1.1849984e-02   6.3233189e-02
  1.2282258e+00   6.2733732e-02
  8.9086640e-01   9.8829083e-03
 -3.2676244e-01   6.3207515e-02
  2.4798997e-01   2.0453380e-02
  1.2014186e-01   8.4967583e-02
 -1.1261893e-01   9.2334829e-02
 -2.9256886e-01   6.6815682e-02
  5.1184756e-01   1.0000000e-01
 -8.4725738e-01   3.0902477e-03
 -3.6832042e-02   5.8720838e-02
  1.0546774e-01   9.9753566e-02
  3.6073831e-01   3.8718682e-02
  3.2394412e-01   4.4336099e-02
  1.6817866e-01   6.2525794e-02
 -4.7362905e+00   7.4435216e-03
  1.3226368e+00   9.0854660e-02
 -3.0471945e-01   9.0762287e-02
  2.9590002e-01   6.1480580e-03
  1.0861689e+00   1.0115126e-02
 -5.5816972e-01   4.4440225e-02
 -4.7875556e-01   3.9408438e-02
  2.8919430e+00   1.9350861e-03
 -4.7496852e-01   5.0800614e-02
  5.2443928e-01   6.5726355e-02
  6.4206278e-01   8.7417394e-02
  7.4587679e-01   1.5263889e-02
 -1.2160124e+00   2.7426358e-02
 -3.6965843e-02   2.4764517e-02
 -1.8681878e-01   4.0305569e-03
 -9.8801978e-02   4.7370456e-02
  6.9401759e-01   8.4581800e-02
 -1.0456732e-02   3.4009490e-02
  6.3047266e-01   1.7568966e-02
  4.6446323e-01   4.1505210e-02
  1.1044276e+00   9.0870267e-04
  4.3011591e-02   1.5627742e-02
 -5.4426885e-01   3.3532780e-02
  5.1422280e-01   8.5776657e-02
 -4.4198841e-01   1.4971661e-02
  6.4549398e-01   4.6751383e-03
  1.4701834e+00   2.3637617e-02
 -1.3210228e-01   9.2920259e-02
  2.1654692e-01   6.4171448e-02
  2.9748997e-01   4.5839086e-02
  4.1400933e-01   4.4574942e-02
 -2.2877427e-02   1.8501446e-02
  5.4215723e-01   6.5179658e-03
 -1.4923598e+00   1.6083006e-02
 -1.8950942e-01   7.5047433e-02
 -9.5626712e-03   7.0753656e-02
  1.4084738e-02   1.2438955e-02
 -1.7182399e-01   3.2292757e-02
  3.3474211e-02   3.4003720e-02
  5.2091509e-01   5.0914142e-02
 -6.9427744e-02   5.4223135e-02
  4.8496123e-02   8.9130893e-02
 -4.9123394e-01   6.5341674e-02
  7.3043090e-01   4.6724640e-02
  3.0613104e-01   5.5569056e-02
 -1.3940983e+00   4.6616122e-03
 -1.7105493e-01   5.7725508e-02
 -5.4490155e-01   6.3843831e-02
  3.7067595e-01   2.3620687e-02
  8.1566161e-01   2.5409772e-03
 -1.5855899e+00   2.8382571e-02
 -6.4662331e-01   6.2221348e-02
  2.0146643e-01   2.0170886e-02
 -2.1286537e-01   3.1421952e-02
 -1.2400461e+00   2.8392535e-02
  1.0938240e+00   6.0834596e-04
  4.3921318e-02   9.6990764e-02
  2.6329058e-01   9.7926848e-02
 -1.3872947e-01   1.1824286e-02
 -1.9349712e-01   2.3826180e-02
  1.1614645e-01   3.0608058e-02
  9.0143043e-01   9.2056587e-02
  3.5116610e-01   1.9509152e-02
 -8.7104911e-01   1.5845891e-02
 -2.8707261e+00   6.2698768e-03
 -1.5591279e+00   3.6792469e-03
  1.0664130e+00   2.9149961e-03
  8.3710450e-01   6.6322461e-03
 -4.4315603e-01   8.7666713e-02
 -1.2970035e-01   9.0658657e-02
  9.1175842e-01   3.5319220e-02
  1.6043906e-01   1.1338560e-02
 -2.0314711e-01   1.5853051e-02
  2.1975933e-01   1.5116842e-02
 -3.1752515e-01   3.7597720e-02
  8.4775525e-01   9.1475077e-02
  4.7874472e-01   8.1921682e-02
  6.6555011e-01   8.7969862e-02
  9.4472595e-02   5.1641516e-02
 -6.4579296e-01   2.2490636e-02
 -1.5065308e-01   6.1264995e-02
 -5.3328839e-03   9.2155591e-02
 -4.9834125e-02   7.6982183e-03
  3.7305734e-01   5.4505769e-02
  1.0987403e+00   6.7713782e-03
  1.2843986e-01   3.1959713e-02
  6.6241527e-01   2.6413592e-02
 -1.0275478e+00   1.1879788e-02
  3.9855874e-01   6.1472030e-03
 -4.7641382e-01   1.2279008e-02
 -6.2712736e-02   4.0404694e-03
  2.4285354e-01   4.0651996e-02
  4.3299076e-01   5.3938236e-03
 -1.3151227e-01   3.6092877e-02
 -8.2072705e-01   9.8344944e-02
  7.4832714e-01   3.0050385e-03
 -3.4840012e-01   5.8473695e-02
  1.7096247e-01   1.0066506e-02
 -5.2748196e-02   2.6590981e-02
 -6.5772313e-01   8.3020113e-02
 -4.0985617e-01   2.1605127e-02
  1.0465940e+00   1.4879578e-02
  3.2258105e-01   7.4510224e-02
 -2.5811136e-01   6.1212990e-02
  8.0964822e-01   8.8193584e-03
 -1.8842410e-01   2.5834385e-03
 -7.0303524e-01   2.4531584e-02
 -5.9740603e-01   5.7183947e-02
  2.9637501e-01   4.1596606e-02
 -5.1572293e-01   3.9507452e-02
  4.4231370e-01   2.1611556e-02
  6.7958724e-01   3.0036895e-02
  2.4811587e-01   8.8875405e-02
 -1.5684986e-01   5.8615275e-02
 -4.1791981e-01   6.2790222e-02
 -7.2208905e-01   5.3055018e-02
 -7.5355875e-01   5.6978349e-02
 -5.9000019e-02   6.6130557e-03
 -7.2364163e-01   2.1320226e-02
 -7.1785855e-01   9.6415952e-02
  1.2718688e-01   6.0757406e-02
 -7.8399085e-02   4.6773542e-02
  7.3644415e-02   4.1088268e-02
  8.0684704e-01   3.9119743e-02
  1.8373850e-01   5.3041638e-03
  6.6921078e-02   1.8679479e-02
 -3.0010009e-01   2.5016231e-02
 -6.8840563e-01   2.4613576e-02
  3.8641520e-02   7.0746556e-02
 -1.9716391e-01   2.9333017e-03
  7.4000186e-03   4.7715209e-02
  5.5378151e-01   9.0311415e-02
 -6.9979137e-01   7.7389583e-02
  1.2213907e+00   5.8872800e-02
 -2.7909374e-01   5.8309671e-02
  8.9592445e-01   7.6573519e-03
 -4.0856859e-01   6.6649012e-02
  3.1860065e-01   1.1246434e-02
 -5.6385946e-01   3.7739169e-02
 -5.2061427e-01   5.3201783e-03
 -2.5195882e+00   4.1815522e-03
  1.8495148e-01   8.8620476e-02
 -6.4653978e-02   8.3480299e-02
  5.7377928e-01   3.5823312e-02
 -9.9678356e-03   3.9681729e-02
 -8.0663905e-02   3.6751378e-02
  2.2885990e-01   4.8575606e-02
 -1.4931028e+00   4.3196864e-02
 -6.6496283e-01   9.1072291e-02
  9.9167496e-01   8.7571673e-02
  1.0712475e-01   3.8131659e-03
  9.5350094e-02   5.9638429e-02
 -3.8344607e-01   7.5342372e-02
 -8.9673287e-01   3.7781190e-02
 -9.4611937e-01   2.6865315e-03
 -1.6966006e-01   5.8620472e-02
 -3.2469335e+00   8.7745134e-03
 -2.3501792e+00   2.1391318e-03
  1.0649940e+00   8.9429148e-02
 -2.7136750e+00   3.2105528e-02
 -9.3210012e-01   1.4970439e-02
  4.3773502e-01   4.5730740e-02
 -2.3025659e-01   9.9445553e-03
 -1.7310902e+00   3.1815890e-02
  3.8333619e-01   1.8846201e-02
 -9.6028638e-01   2.2931534e-03
 -1.6386634e-01   2.7300781e-02
  2.0715043e-01   1.7222559e-02
 -8.3894134e-01   1.0866011e-02
  8.3247191e-01   2.4936511e-03
 -6.9557053e-01   2.2776998e-03
 -3.3166122e-02   1.1463746e-02
 -2.1361159e-01   4.6013400e-02
  6.4103436e-01   2.0697396e-03
 -7.3522806e-02   4.6874311e-02
  1.9697559e-01   1.0811059e-02
  1.8348257e-01   8.8861873e-03
 -4.6672189e-01   4.2341620e-02
  7.3936976e-02   2.2359954e-02
 -6.3521153e-01   7.9892382e-02
 -1.4972998e-02   4.6813615e-02
  1.7128258e+00   3.4881539e-03
  8.0023968e-01   3.9148271e-02
 -2.1270411e-01   3.3767030e-02
 -3.9381489e-01   4.9106646e-03
 -2.9101893e-01   7.7512935e-02
 -8.8008177e-01   1.2809373e-02
 -5.6890941e-01   4.4905540e-02
 -7.4139886e-02   8.4503755e-02
  4.5933303e-01   6.5163627e-02
  1.2075119e+00   4.7894679e-02
  1.7486456e-01   1.5094530e-02
  8.8202804e-01   7.4579999e-02
  8.4551632e-02   2.1893486e-02
  7.7309869e-02   5.4246858e-02
 -8.4955531e-01   1.8408593e-02
  6.5381742e-01   4.9380064e-02
 -1.0533303e+00   6.5580769e-03
  2.9806182e-01   9.4987683e-02
 -5.0118685e-01   4.4959459e-02
 -8.2912922e-01   9.9246539e-02
 -7.9291262e-02   9.9141933e-03
 -2.0437677e+00   5.6680564e-02
 -4.1472402e-01   7.1727708e-02
  4.3469919e-03   1.2505921e-02
 -1.0102520e+00   7.9233414e-03
  2.5534010e-01   3.9985694e-02
  1.9379324e-01   8.2855923e-03
 -4.0800622e-01   7.2540715e-02
  1.0870143e+00   7.8277543e-02
  5.9719431e-01   1.3748134e-02
  9.6674192e-01   2.5825704e-02
 -4.9565271e-01   9.2930801e-02
 -5.1057264e-02   5.3254001e-02
  4.6293890e-01   4.2741526e-02
  4.4394884e-01   2.0480035e-02
  5.7828230e-01   5.3218853e-02
 -1.2144389e+00   6.2239520e-02
  3.3505172e-01   6.2079836e-02
  7.4184604e-02   7.8913406e-02
  6.5192693e-01   3.5256904e-02
  5.4884180e-02   1.1897647e-02
 -1.6176226e+00   1.9457789e-02
  2.5074697e-01   1.5527879e-02
  1.7438418e-01   2.6582040e-02
  8.3150440e-01   3.2090554e-03
  6.3205826e-01   9.7587273e-02
 -1.1329606e+00   2.9353147e-02
 -2.2065511e-02   2.7319120e-02
  8.5344099e-02   4.3436605e-02
 -1.1759388e-01   3.3775438e-02
 -3.3917052e-01   7.8276254e-02
 -2.4708185e+00   3.9455243e-03
  4.3082336e-01   3.7192002e-02
 -1.0316284e+00   2.4215214e-02
 -1.2212557e+00   1.0674945e-02
 -4.9688861e-02   2.9031545e-02
  1.4347936e-01   2.7248649e-02
  9.4047344e-01   7.1608290e-02
 -9.6594773e-02   8.5458964e-02
 -1.4934367e-01   6.7071326e-02
 -4.9660508e-02   3.5330452e-02
 -4.8152965e-02   2.4211226e-02
 -3.0375016e-01   3.0256098e-02
  6.6250324e-01   1.1807092e-02
  8.5083193e-01   1.1258813e-02
  5.4506660e-01   5.9783209e-02
  7.2147459e-01   7.9652831e-02
  1.0500971e+00   4.0590048e-02
 -6.7852557e-02   2.0576231e-02
 -1.6760391e-01   7.0836157e-02
  2.7432495e-01   1.8320596e-03
 -4.2024277e-02   2.2171440e-02
 -1.1666424e+00   9.7700477e-02
  3.1974286e-01   3.3102959e-02
 -1.1145188e+00   1.5000408e-02
 -1.3784616e-01   4.4998406e-03
  1.6210660e-01   6.1750453e-02
 -2.3332758e-01   8.0722593e-02
  4.5484704e-01   1.2220603e-02
 -6.2817544e-01   4.2673424e-02
 -4.7369221e-01   4.2041127e-02
 -6.7217380e-02   2.5134278e-02
  4.3483606e-01   4.1595079e-02
  3.5237864e-01   5.0202005e-02
  2.6044352e+00   5.2216166e-04
  2.5387236e-01   3.4570325e-02
  1.9221263e-01   2.4666671e-02
  9.6159929e-01   8.1965625e-03
  2.5537917e-01   3.4836449e-02
  5.7574373e-01   8.1971459e-02
  1.6993335e-01   5.2510336e-02
  1.4770137e-01   4.8720557e-02
 -6.4099741e-01   3.3097446e-02
  3.0373150e-01   8.6282834e-02
 -1.2779942e-01   5.7941262e-02
  1.2674016e-01   2.1584608e-02
  1.9812007e-01   1.8930873e-02
 -2.5586933e-01   5.7490475e-02
 -4.6981832e-01   9.3099482e-02
  4.1137341e-01   5.6938464e-03
  3.6078990e-01   5.8391304e-03
 -1.2681109e+00   3.7367949e-03
 -7.6683557e-01   2.5853733e-02
  2.5738772e-02   6.7834750e-02
 -1.0653733e-01   1.0608554e-02
  5.5061412e-01   5.1973041e-02
  2.9730955e-02   9.2127947e-03
  5.7429510e-01   5.4840161e-03
  1.8707629e+00   1.8000219e-02
  9.1043150e-01   3.8937125e-02
 -1.1553068e+00   6.7464411e-03
 -5.1521617e-01   7.0998028e-02
  3.9716068e-01   5.5896477e-03
 -1.4151992e+00   3.1999938e-02
  3.3823866e-01   1.3619041e-02
 -8.6106157e-01   9.5338421e-03
  2.0959796e-01   4.4208404e-02
 -2.5501597e-01   3.6339071e-02
  2.7663559e-01   1.5698301e-02
  7.9620945e-01   1.1189361e-02
  2.8877139e-02   6.2317278e-02
  8.2542485e-01   9.6394703e-02
  2.9332805e-01   1.3223926e-02
  3.1482565e+00   5.8143417e-04
 -1.0138550e+00   2.3804210e-02
  3.9418351e-02   3.2401878e-02
 -9.1078037e-01   6.2954560e-02
 -1.1263680e-01   9.2229508e-02
  8.2149625e-01   1.3186264e-02
  7.8814030e-02   1.8110713e-02
 -9.9426568e-01   1.3876510e-03
 -2.6445708e-01   1.0122356e-02
 -4.9071223e-02   1.1921135e-02
  6.7462152e-01   2.5694370e-02
 -9.1583937e-01   1.4841147e-02
 -1.8186489e-01   7.8227349e-02
  2.9784811e-01   5.9802420e-02
  7.4985272e-01   7.3048882e-03
 -4.1242413e-02   3.9329484e-02
 -2.3841396e-01   2.2251334e-02
  3.3876216e-01   5.2331816e-03
 -1.4913423e-01   6.1593615e-02
  1.3832998e+00   7.4656345e-02
  1.4121333e-01   7.7071846e-02
  6.3793933e-01   2.0908659e-02
  4.2739384e-02   2.5028305e-02
 -7.2086912e-01   3.9608283e-03
  7.1545994e-01   2.4167338e-02
 -1.0985614e-01   8.6848564e-02
 -1.6789229e+00   7.3484830e-03
 -9.9587846e-01   8.3545722e-02
 -3.8307843e-01   4.1381896e-02
 -1.1687437e-01   4.7213990e-02
  2.7908711e+00   1.5240741e-03
 -5.3978622e-01   4.2589027e-02
 -3.9132405e-03   9.4730062e-03
  2.7581939e-01   7.9421878e-02
  8.4155923e-01   8.7044440e-02
  8.3130693e-01   4.7293868e-02
  2.5596467e-01   8.8265322e-02
 -1.1143099e-01   3.0575795e-02
  6.6580647e-01   1.3570064e-02
  3.7944531e-01   1.4055063e-02
  8.3540404e-01   8.8426135e-02
 -7.4490374e-01   4.0947651e-03
 -3.3289522e-01   1.4823067e-02
 -3.6226436e-01   1.3683825e-02
 -8.7749116e-02   7.9027727e-02
  1.0962515e-01   3.8462363e-02
  5.6045091e-01   3.5179465e-03
 -2.5595981e-01   1.9556880e-02
 -5.5270696e-01   1.0000000e-01
 -2.2088560e-01   2.6762925e-02
  1.9334834e+00   4.2016499e-02
  3.8399512e-01   4.5972355e-02
 -3.6280078e-01   5.8096547e-02
 -4.2836928e-01   9.9490076e-02
  4.4003394e-01   8.0292411e-02
  6.4808917e-01   4.5382012e-02
 -6.4354353e-02   7.0610471e-02
 -9.8184794e-01   9.5746793e-02
 -2.5738850e-01   1.4630659e-02
 -1.2464100e+00   6.6996561e-03
  6.6551644e-01   3.7674256e-02
 -4.9497820e-02   7.7931374e-02
  4.8408842e-01   7.9933651e-02
 -6.9069979e-03   4.1735150e-02
  4.2552823e-01   1.5181337e-02
 -9.7283453e-02   1.6305199e-02
  4.0427125e-01   1.1073486e-02
 -7.1187872e-01   1.0095775e-02
  3.3983195e-01   5.7883088e-02
  6.0032183e-01   3.1585675e-02
 -1.4221424e+00   3.2581245e-03
  1.7026947e-01   7.2825640e-03