 -1.1411412e-01   3.0552661e-03
 -1.2878947e+00   1.4564001e-03
 -2.8746018e-01   1.8977566e-02
  4.0789419e-01   4.0484825e-03
  3.6858359e-01   2.7636968e-02
  4.7106057e-02   7.0725575e-02
 -3.3087343e-01   4.0311612e-02
  5.8526266e-01   4.9432829e-02
 -8.4829807e-01   3.0110855e-04
 -1.6402811e-01   1.5355350e-02
  1.3913286e-01   4.8502623e-03
 -2.9560706e-02   1.0604574e-02
 -2.2137731e-02   3.0306756e-02
  1.5761229e-01   3.0189448e-03
  3.0471131e-01   3.3397317e-02
  2.6215935e-01   6.5323687e-03
 -2.1103092e-02   3.7201785e-02
 -1.8572760e-01   2.3976341e-03
 -9.4471723e-02   2.2841793e-02
 -5.3917855e-01   4.1925567e-03
 -2.7714208e-02   4.7906790e-02
 -1.9123724e+00   1.2632166e-03
  7.8891885e-01   3.2930449e-03
  8.5687704e-02   5.9568383e-02
  9.5093411e-01   6.4361905e-04
 -4.4587132e-02   3.6236106e-03
  2.4909705e-01   1.8192884e-02
 -9.1996789e-02   6.4990548e-03
 -1.9284317e-01   3.0996162e-03
  1.2758152e-01   3.2941204e-02
 -4.1149870e-01   2.0096378e-02
  1.2626296e-01   1.0085140e-02
 -2.8870887e-01   2.5719492e-02
  4.5814416e-01   1.4949942e-03
  1.9444708e-02   2.0171339e-02
 -2.8994012e-01   3.4951165e-02
  1.5791490e+00   2.6522006e-03
 -3.2100001e-01   5.2951045e-02
 -9.2275338e-03   1.5356240e-02
 -2.6489255e-01   7.8778686e-03
 -7.7018552e-02   1.9183187e-02
 -2.6421982e-01   5.7284744e-03
  2.7466798e-01   3.4416434e-03
  6.3768631e-01   1.0676143e-02
  1.4285180e-01   4.0312227e-02
 -9.4402581e-02   1.4754773e-02
  2.8910679e-01   8.6319074e-02
 -1.1598700e-01   6.1982735e-03
 -6.1870646e-02   6.0398593e-03
 -1.8991938e-01   1.7798208e-02
 -1.6765676e-01   1.6757801e-02
  4.3741647e-02   1.5122797e-02
  1.3703460e-02   5.9402633e-02
 -8.1110694e-02   5.9338748e-02
 -3.5457948e-01   2.5356865e-02
  1.3263214e-01   3.0799164e-02
  1.9930744e-01   8.9640372e-02
  3.4253162e-01   1.4619522e-02
 -2.1021818e-01   5.0559093e-04
 -1.3523859e-01   2.9548591e-02
  5.6211734e-01   7.4664960e-03
 -1.3701348e-01   5.9931055e-03
  5.2982759e-01   2.1300926e-03
  1.0476948e+00   6.5685408e-03
 -3.6096638e-01   8.5010929e-03
  2.1380853e-02   4.6318048e-03
  6.6661644e-01   7.5175003e-03
 -1.4411919e-01   2.5337033e-02
  3.6039375e-02   2.6785897e-02
 -3.7817471e-03   6.4494759e-03
  1.9678445e-01   3.0009870e-03
 -4.7828889e-01   1.7696509e-02
  4.6322730e-01   2.5702598e-02
  2.5668842e-01   5.2177943e-02
  4.7119211e-02   5.3434838e-02
 -2.7075762e-01   3.5009053e-02
  1.8264581e-01   1.8827891e-02
 -4.1536295e-01   4.6887053e-03
  3.6607072e-01   1.2482735e-02
 -2.4961813e-05   4.5915096e-04
  6.5339610e-02   9.0041984e-04
 -1.9618589e-01   5.7229877e-02
 -2.2849914e-01   3.4185432e-02
  5.2256435e-02   3.0499203e-02
  7.8092441e-02   4.8379786e-02
  2.3833300e-01   2.7432438e-02
  1.6571723e-01   5.0735348e-03
 -5.2315947e-02   1.0400319e-02
  2.0274633e-01   1.2134669e-02
  7.0224315e-02   2.5204198e-02
 -2.8400056e-02   3.8805775e-02
  3.8673207e-02   8.1250787e-02
  2.9807163e-02   3.2088418e-02
 -3.3986443e-01   2.6330397e-02
  7.0211306e-02   2.5943359e-02
 -1.0950866e-01   8.2759179e-02
 -2.8188300e-01   9.7667277e-03
  6.2672295e-02   5.5520445e-02
  2.6863638e-01   2.5590986e-02
  2.5987715e-01   3.8927663e-02
 -3.2958537e-02   1.6109547e-02
 -5.3612548e-01   2.8612979e-03
 -9.2670605e-02   5.0785253e-03
  5.9934181e-01   4.1368961e-02
 -1.2685327e-03   2.0641351e-02
 -7.0655769e-01   1.2706860e-03
  4.4157524e-02   1.2887697e-02
 -9.7563809e-01   2.7938434e-03
  3.2334110e-01   1.8465696e-02
  8.6498983e-02   8.9355521e-03
 -1.1532131e-01   1.7924806e-02
  1.1723124e-01   2.6742315e-03
  2.8671938e-01   3.4608748e-02
 -3.0443275e-01   5.0128065e-03
  9.6963160e-02   2.4112733e-03
 -1.5454581e-01   5.3788964e-03
  4.0995198e-01   1.8386738e-03
 -1.5898980e-02   5.1913783e-03
  1.3841729e-01   7.7362172e-03
  4.2024904e-01   3.4373414e-03
 -6.0947563e-02   1.6311629e-02
  8.4802493e-02   1.3668776e-02
  2.5610858e-01   2.9798280e-03
 -7.3408447e-02   1.9213686e-02
  1.5905809e-02   5.2818805e-02
  4.3849075e-01   9.0803122e-03
 -2.8320137e-01   5.1039509e-03
 -3.2126346e-01   6.2132617e-03
  8.2173400e-02   4.5195732e-02
  1.6563544e-01   1.8867882e-02
 -1.5288490e-01   3.3998969e-03
 -4.9292865e-01   8.0572311e-03
 -1.5843080e-02   1.7103218e-02
 -1.0327180e-01   2.4838692e-03
 -6.5205827e-02   6.4439438e-02
 -3.7411362e-01   7.2393855e-03
 -2.5080764e-01   6.9230977e-03
 -3.1835562e-01   1.0342163e-03
 -1.3468749e-02   1.0540276e-03
  1.6716841e-01   2.1728722e-02
 -9.0688837e-01   2.7462023e-03
 -9.8280728e-01   3.3681567e-03
  2.9616684e-01   7.4460302e-03
  8.9931351e-01   6.1811594e-04
  8.0122106e-02   1.7981568e-02
 -5.6446064e-03   3.1252515e-03
  2.6991922e-02   3.5710670e-03
 -1.0558394e-01   2.7358558e-03
 -4.3315041e-01   9.2433188e-03
 -2.6493598e-02   2.5181512e-03
 -4.7943112e-03   3.8729024e-03
 -3.5748094e-01   4.6784491e-03
  5.0144695e-02   1.3995528e-02
  3.1337756e-01   2.9827451e-02
  9.6775731e-03   8.5246349e-03
  2.1039023e-01   1.0744339e-02
  6.4094692e-01   4.1308817e-03
 -5.3996569e-01   1.0810649e-02
 -1.0711794e-01   7.8151487e-03
 -1.1590877e-01   4.9076718e-03
 -7.7014700e-02   2.0909086e-03
  6.9541253e-02   1.7724743e-02
  8.5448831e-02   8.2173627e-03
 -5.1274049e-01   7.9192286e-03
 -3.7383446e-01   1.5913758e-02
  1.0724988e-01   3.3391647e-03
  3.8271391e-01   8.8930754e-03
  2.9110301e-01   1.7832301e-03
 -3.2002404e-01   2.8930401e-02
  5.9912592e-02   5.2069542e-03
  1.9892596e-01   1.8272357e-02
 -1.8848321e-01   5.7369270e-03
 -2.9561731e-01   1.4375689e-02
 -1.4744897e+00   1.0679077e-03
 -1.6438776e-01   2.1359414e-02
  7.3765203e-02   2.2951748e-02
  1.2376171e-01   1.3859604e-02
 -3.0335158e-02   9.8883007e-03
  8.8980913e-01   5.1229475e-03
  1.9225675e+00   4.3166269e-04
 -6.3275898e-01   6.1207199e-03
  1.3246319e-01   1.8677592e-03
 -6.0756989e-02   1.3592523e-02
  2.4134521e-03   5.6351703e-03
  2.6864091e-02   7.9977885e-03
  2.3057036e-01   1.5188678e-02
 -1.0454644e-01   9.1410074e-03
 -7.8837268e-02   5.0404062e-03
 -2.1454467e-02   3.2099672e-03
 -2.5652251e-01   5.7107404e-02
  3.8212198e-01   2.5295371e-02
  5.8535999e-03   5.8881525e-02
 -6.1905183e-02   3.8064527e-03
 -1.9829580e-01   1.6812855e-02
 -4.1789811e-02   4.2028721e-02
  3.4978919e-02   1.9508179e-02
 -1.5456158e-01   2.0260397e-02
  1.4135846e-01   1.3248418e-02
 -1.2766910e-01   7.8392839e-03
 -5.0321411e-02   1.9049754e-03
  2.1549751e-01   1.2705945e-02
 -2.8083944e-01   1.7135875e-02
 -5.6360893e-02   1.5245646e-02
  2.2704075e-01   3.6536572e-03
 -2.9661292e-01   2.6479037e-02
  2.7996975e-01   6.9282703e-02
  2.7205709e-01   7.8728274e-03
 -1.0890261e-01   6.6591026e-03
  1.9787803e-02   2.9459975e-03
  1.1706368e-01   1.8585302e-02
  1.8911198e-01   4.8206475e-02
  3.8168168e-01   1.4172589e-02
 -5.8728699e-02   6.9418517e-03
  4.6029592e-01   6.2390212e-03
 -3.2410043e-01   6.4497427e-03
 -1.6302247e-02   6.2519247e-03
  2.9043090e-01   1.0934748e-02
  1.6883330e-01   9.6442457e-03
 -1.1979789e+00   2.3463210e-03
 -2.4128418e-01   2.0146063e-02
 -2.8181091e-01   2.8058229e-04
  2.5555137e-01   3.3378201e-03
 -9.4112790e-01   3.0417270e-03
  2.3457161e-01   6.6650473e-03
 -3.0299154e-01   2.6944727e-02
 -8.8871427e-02   1.9937657e-02
 -6.6478789e-01   3.7828855e-02
  1.7794029e-01   2.4995646e-03
 -1.7947134e-01   1.7811121e-02
 -9.8850256e-01   7.1529968e-05
 -4.3142125e-01   2.0812585e-03
  9.4078407e-02   1.8750561e-03
 -3.7909979e-01   3.7052285e-02
  4.9504548e-02   4.1508179e-02
 -1.3501878e-01   7.2384495e-03
  1.2471601e-01   4.5334924e-02
  8.9172900e-02   1.3449568e-02
 -3.0653747e-02   4.8767324e-03
 -2.3662972e-01   1.2463204e-02
 -6.1570678e-02   1.3827482e-02
 -5.1544208e-02   1.9320566e-02
 -8.0476068e-03   1.2164132e-02
 -7.0142359e-01   7.1080578e-03
 -1.1508171e-01   4.5398906e-02
  1.1057542e-01   1.1550904e-02
  2.5678781e-01   8.8365609e-03
  8.5456175e-01   3.3896447e-03
 -2.4070169e-01   2.4363292e-02
 -7.2877896e-03   5.4950573e-02
  8.1878588e-02   1.0838938e-02
 -2.1857215e-01   1.7436463e-02
 -3.7683842e-01   3.5153769e-02
 -4.6141040e-02   4.4661570e-02
  1.2569497e-02   1.7068617e-02
 -3.3870772e-01   1.8404076e-02
 -2.3669939e-01   2.7342537e-02
 -2.9861760e-01   9.8455744e-03
 -2.3739293e-01   3.8333908e-03
 -6.5615252e-02   4.9458798e-02
 -8.3554047e-01   7.8684936e-04
 -6.1110448e-02   7.3157880e-03
 -3.9769195e-02   1.0479170e-02
  1.4436119e+00   3.1145022e-03
 -2.4457049e-02   1.5177273e-03
 -2.9811552e-01   1.2698348e-02
  7.7174537e-02   8.3244633e-04
  2.6959488e-01   2.1637686e-02
 -6.7635678e-02   5.5162255e-03
 -7.7461779e-02   2.9253384e-02
  8.3274722e-02   2.3770656e-02
  3.3571360e-01   4.6777972e-03
 -3.4737295e-01   3.4748927e-02
 -3.1384116e-01   1.4968338e-02
  5.6276340e-02   7.0975213e-03
  1.3816148e-02   4.0457915e-03
  3.7036013e-02   1.8603174e-02
 -2.1256381e-01   1.0898089e-02
 -1.2349566e-01   7.0763063e-03
  1.4437416e-01   4.2397350e-02
 -3.7513918e-01   1.2922287e-02
  3.0883092e-01   4.9717999e-03
  2.3317175e-01   2.8716784e-02
 -1.4462157e-01   1.4600676e-02
 -2.0281170e-02   6.4482793e-02
  2.4085020e-01   2.2031957e-02
  3.0883199e-01   2.6213350e-02
  2.4763656e-01   1.6848700e-03
 -2.4690560e-01   1.2158463e-02
  1.9260867e-01   9.6832775e-03
  1.2119474e-01   2.9306056e-02
  1.3924322e-01   6.5338803e-03
 -7.7020094e-02   1.3347052e-02
 -6.6347080e-01   7.5768624e-03
 -1.8694465e-01   7.5430577e-03
 -8.4515452e-01   9.7746297e-04
 -2.3754721e-04   1.1233907e-02
 -1.4100082e-01   1.9948136e-02
 -2.5750419e-01   2.7592592e-03
  5.7370458e-02   5.9607420e-03
 -5.5215240e-01   2.1942845e-02
 -1.6110341e-01   6.3111279e-03
  2.4038531e-02   5.3078402e-03
 -4.1530222e-01   2.9928335e-03
 -3.2263929e-01   1.2687852e-02
 -2.6571867e-01   2.4629598e-03
  6.8728685e-02   1.3829880e-02
  5.1394936e-02   6.2777810e-03
 -2.2195882e-01   4.4124001e-03
 -5.6545788e-01   2.3170019e-02
 -2.2474349e-01   8.1581259e-03
 -3.9941216e-01   1.3829112e-03
  2.3332754e-01   4.0358976e-03
 -6.3120276e-02   3.8146023e-03
 -1.4757849e-01   3.2028142e-02
  7.0730433e-02   3.6394071e-02
 -9.2232838e-02   9.3735633e-03
 -9.2943974e-02   4.6650781e-03
 -4.2374909e-01   2.1292148e-03
  6.5144129e-02   2.1752210e-02
 -6.2269956e-01   1.7700044e-02
 -2.4663807e-01   1.3745106e-02
  2.9755248e-02   1.0460359e-03
 -1.1701961e-02   1.3002187e-03
  9.5688008e-02   3.1563826e-02
 -4.8772198e-01   4.0868530e-03
 -1.5521720e-01   1.0628925e-02
 -3.7801672e-02   3.4097913e-03
  3.4225181e-01   4.9877572e-03
 -4.8674550e-02   1.4180218e-02
 -3.7816319e-01   1.6772060e-02
  1.0609106e-01   1.1761097e-02
 -2.2404404e-02   1.0869667e-02
 -1.3208389e-01   3.8530286e-03
  4.1549284e-02   4.0092645e-03
  2.5207046e-01   1.3742741e-02
  3.3685747e-01   6.0687698e-02
  3.4624463e-01   1.0109746e-02
 -1.9813383e-03   3.4155794e-03
 -4.5116964e-01   4.0167365e-03
 -7.2150886e-02   1.2153651e-02
  8.8536121e-02   8.9248912e-03
  1.0143386e-01   5.7551656e-03
 -2.8403066e-02   1.2450880e-02
  3.8733098e-01   1.3110982e-03
  1.3182402e-01   2.4549745e-04
  3.4988828e-02   4.2754756e-03
  1.1650826e-01   3.2710247e-02
  3.3860874e-01   5.3456635e-03
  2.0501491e-01   4.0865205e-03
  1.2349508e-01   1.9938720e-02
 -6.9648484e-03   4.5851152e-02
  4.8628602e-02   3.7803426e-02
 -6.5217233e-01   3.8988756e-03
 -2.7033952e-01   7.9696689e-04
 -4.0523547e-01   3.0594511e-02
 -8.9541800e-02   2.2170825e-03
  1.0796162e-01   4.7266070e-02
  3.9816424e-02   4.5612969e-02
  1.8729833e-01   1.8316289e-02
 -5.3785652e-01   1.8996859e-03
 -4.9665082e-02   2.8200362e-02
 -3.5681915e-01   6.3778092e-03
 -3.7339258e-01   1.3410641e-03
  1.7668067e-01   1.1886164e-02
 -5.5173230e-01   8.0711730e-03
 -4.9815767e-02   1.7350869e-02
  1.6421722e-01   6.6539377e-02
  1.1591655e-02   4.2413078e-02
 -1.5923452e-01   1.9056350e-02
  2.4073882e-01   3.7144098e-04
 -3.0660641e-01   3.2095239e-02
  8.9656144e-02   1.9271977e-02
  5.2390581e-01   2.9645606e-03
  1.7440853e-01   2.1007860e-02
 -7.5314426e-01   1.1135835e-03
 -2.4247313e-02   1.0601958e-02
  6.7491658e-02   5.7806030e-02
 -3.1078663e-01   7.7746641e-03
  7.2502881e-01   8.4531810e-03
 -5.7034440e-02   6.6514211e-03
 -1.3652140e-01   8.1574909e-02
  4.9206913e-01   8.4315436e-03
  9.5536727e-01   5.1398156e-03
  5.1660591e-01   6.7094830e-03
 -7.6847628e-02   2.9976787e-02
  1.0164113e-01   5.6593586e-02
  1.8716668e-01   1.1510449e-02
 -7.5365439e-02   3.0601738e-02
  5.0625163e-01   1.9984173e-04
 -1.2235145e-02   1.6920501e-02
 -2.8881595e-01   2.7359869e-02
 -3.9535347e-01   2.2447128e-02
 -1.2110377e-01   1.6481666e-02
 -3.4611037e-01   6.7718225e-03
  2.7414033e-02   3.9175102e-03
  6.2874663e-03   2.6593201e-02
 -2.2904629e-02   1.1706420e-02
 -7.4506767e-02   8.8130683e-03
  2.4273294e-01   1.4567222e-02
  1.1133189e-01   9.7815217e-03
  6.3475229e-02   9.9735186e-03
 -6.1292553e-01   3.1166459e-03
 -3.7854958e-01   2.8800620e-03
 -4.8013076e-02   2.3379885e-03
 -3.1840163e-01   2.1033869e-03
 -9.4845474e-02   3.5021842e-02
  2.9807627e-02   2.4957699e-03
 -1.4076127e-01   5.3363603e-02
 -2.6653033e-01   7.7604847e-03
  1.8058066e-01   3.5623191e-03
 -3.0558832e-02   2.7591482e-02
 -3.0998532e-02   6.0121521e-02
 -2.0010486e-01   5.4634191e-02
 -2.3018600e-02   1.7894324e-02
  5.0391239e-01   5.8032027e-03
  2.7144912e-01   4.8120297e-02
  1.1448952e+00   5.3560594e-03
 -1.0344809e-01   5.0882149e-02
  1.9491513e-01   1.8055703e-02
 -4.0184975e-02   1.5089339e-02
  1.8304566e-02   1.7033408e-04
 -2.9878142e-01   3.6846215e-03
  4.0110838e-02   3.9311361e-02
 -6.7112647e-02   1.1030977e-02
 -5.8034372e-01   2.9791347e-03
 -4.1412190e-02   3.4671973e-02
 -2.0889571e-01   1.6382847e-02
 -5.7680089e-02   1.3379525e-02
 -1.3500923e-01   1.5212102e-03
  1.7006312e-01   1.9384284e-02
  5.6298339e-01   2.2286709e-02
 -7.9127811e-02   1.3040517e-02
  6.1921453e-01   3.0254447e-03
 -2.3482487e-01   7.8362143e-03
  1.3208841e-01   7.7328044e-03
 -2.4833114e-01   5.6240708e-02
  1.5007208e-01   3.1907982e-03
  3.7108666e-01   4.6033088e-02
  1.8008673e-01   3.6507347e-03
  1.6306628e-01   3.4532078e-02
 -5.0321931e-01   6.3225846e-03
  2.5169879e-01   1.6649716e-02
  1.9758081e-01   4.5053363e-03
 -6.4809203e-01   2.9611059e-03
 -7.8373849e-02   5.3436130e-02
 -3.4434490e-02   5.4336004e-02
  2.3349908e-01   2.2302216e-02
  3.7995681e-02   2.8464992e-02
 -4.3220490e-01   1.2528093e-02
 -1.7457092e-01   5.8350969e-02
  1.2961881e-01   2.9157424e-02
  5.4744172e-01   2.3456078e-02
 -2.6737657e-01   7.0430678e-03
 -1.5984261e-01   8.3403764e-03
 -1.0693349e+00   3.0925786e-03
  8.9382030e-02   2.8905994e-03
 -6.4143682e-01   7.3032519e-03
  1.2648514e-02   3.2205898e-02
  1.9860798e-01   4.8731688e-02
  2.9707244e-01   4.0222004e-02
 -6.8539947e-02   1.0028927e-02
  3.5943557e-02   3.4394745e-02
  1.9782172e-01   5.6444663e-03
  4.4268668e-01   1.1636574e-03
 -4.8573941e-02   1.3647969e-02
 -4.6605736e-01   5.1210681e-03
 -2.2340649e-01   1.0988061e-02
 -4.1131374e-01   3.6685048e-03
 -5.9279550e-02   3.9227497e-02
 -1.2865189e-01   2.6759418e-02
 -1.6182882e-01   2.6426213e-02
  3.1547189e-01   3.9851259e-02
  5.6372958e-01   5.2037276e-03
  3.1819123e-01   3.1107930e-02
 -3.6869568e-01   2.8752688e-02
 -7.5634201e-03   2.0626221e-02
  5.3260505e-02   7.6440005e-03
 -2.7415395e-01   8.3965063e-03
  4.6828475e-02   5.1728204e-02
  2.0519975e-01   1.8719548e-03
  3.2284716e-01   2.2428434e-02
 -6.9115805e-03   8.1579871e-03
 -1.3514908e-01   2.7543376e-03
  6.4503387e-02   3.8901195e-02
  3.2223060e-03   1.0000000e-01
  3.1980506e-01   2.7588692e-02
 -2.7936459e-01   2.0882554e-02
 -8.8853657e-02   2.3590475e-02
  8.1295250e-03   1.5622789e-02
  6.6250102e-03   7.6789521e-02
  5.9721321e-02   2.1726089e-02
 -5.1755913e-02   2.0163605e-02
  3.7485953e-02   2.2645837e-03
  9.7953208e-02   5.2431799e-02
  1.3490692e-01   1.3446430e-02
 -4.5553541e-01   1.1071871e-03
  6.4504221e-02   1.1146610e-02
 -1.3995543e-01   5.5155866e-03
 -2.2037026e-01   4.6917390e-02
  1.9910550e-01   6.2347252e-02
  3.5001148e-02   2.5306016e-02
  6.4555600e-02   1.2229915e-03
  4.3817291e-01   6.1536673e-03
 -7.2202623e-01   3.5817511e-03
  4.0715683e-01   8.3137089e-03
  2.2832078e-01   3.4885947e-02
 -9.4344616e-03   3.8485084e-02
  3.7469223e-02   2.8369185e-03
  1.6156954e-01   5.6525487e-03
 -1.2278362e-01   1.2633115e-02
  2.8691301e-01   5.5496679e-03
  1.8368464e-02   1.8403592e-02
 -3.2278159e-01   1.5114901e-02
 -5.0711977e-01   3.2431375e-02
 -2.9994361e-02   5.7901205e-03
  4.8166204e-02   7.4105049e-03
 -3.4640601e-01   1.7014574e-02
 -1.6946225e-01   2.4486035e-02
 -1.4276861e-01   1.6887581e-02
  6.3022673e-02   3.6110815e-02
 -2.4224099e-02   3.9932996e-02
  2.2246532e-01   2.1023570e-02
 -2.0286641e-01   1.0117065e-02
  1.3341811e-01   4.5133978e-02
 -4.3727489e+00   2.4308800e-03
  3.1996351e-01   4.9219485e-02
  5.1437950e-01   7.4192113e-03
  4.4638488e-01   6.1844471e-03
  8.6702687e-01   5.2927942e-03
  9.1524190e-01   1.7947697e-03
 -5.4493666e-02   2.9778486e-02
  1.3340348e-01   2.8020913e-02
 -7.7215508e-02   1.4287942e-02
  1.7277538e+00   2.0609784e-03
  2.9280654e-01   1.2044699e-02
  2.2489724e-01   8.9526847e-03
 -5.2772403e-01   2.9862777e-03
 -1.7833054e-01   3.7250083e-02
  1.1546896e-01   9.6721146e-03
  1.0800668e-01   2.6887067e-02
 -1.1939856e-01   5.6888611e-04
 -4.5661384e-01   5.2374494e-03
  2.1589182e-01   1.1810344e-02
  3.2862782e-02   1.1195210e-02
 -1.1499627e-01   1.3596770e-02
  2.9759699e-01   1.9928349e-02
  3.3132359e-02   9.6530659e-04
 -9.5807040e-01   2.5657010e-03
  1.4002024e-01   5.3404439e-03
  2.4272832e-01   6.6826981e-03
 -2.7302739e-01   7.7511766e-03
 -2.0769387e-02   2.3112370e-02
 -1.0857665e-01   7.6049305e-03
 -2.5935197e-02   8.6580748e-03
  9.3376696e-02   1.2264405e-02
  2.6890928e-01   5.4317326e-03
  4.7744889e-02   2.3111379e-02
  2.3599699e-02   1.8143477e-02
  1.2369999e-01   1.8043855e-02
 -4.6993848e-02   9.8167441e-04
  1.8871126e-01   9.7679747e-03
 -7.2629489e-02   1.0151669e-02
  9.5723309e-02   1.4167704e-02
 -1.1133371e-01   1.4383243e-02
  1.8632869e-01   1.1040184e-02
 -1.1447299e-02   1.5616793e-02
  5.1980716e-01   2.5079863e-03
 -1.6381446e-02   1.7753838e-02
 -1.4445250e+00   2.9373638e-04
 -2.0954132e-01   3.7126735e-02
  9.3997560e-02   6.0493570e-02
 -1.4477247e+00   4.0615283e-04
 -1.2066612e-02   1.9711778e-02
 -1.8782524e-02   4.2714193e-02
  2.7770102e-01   2.3557179e-02
 -2.9490766e-01   2.7897354e-02
  7.0983791e-01   1.5901277e-02
 -2.3306094e-01   4.1151186e-03
  8.8918306e-02   4.1979864e-02
  6.5811083e-02   6.8022303e-02
  3.0352965e-01   7.9873437e-03
 -1.2537926e-01   4.2327099e-02
 -1.8656503e-02   3.8543418e-02
  1.1606370e-01   7.8754993e-03
 -1.0658225e-01   1.9477053e-02
  5.5819895e-02   8.5666180e-03
 -1.8229058e-01   9.8640770e-03
  8.1015803e-02   2.7620678e-03
 -1.0881417e-01   3.1180533e-02
  1.6156942e+00   1.3772443e-02
  1.8718621e-02   2.0071613e-02
 -8.3717138e-02   4.2082779e-03
  7.5862490e-02   2.0163760e-02
  4.1868350e-01   8.1827175e-03
 -3.4968189e-03   4.8828619e-03
 -5.1880971e-02   9.5806411e-03
 -6.5390877e-02   2.2721900e-02
 -1.2362400e-01   1.1382183e-02
 -1.6196278e-01   5.4545584e-03
 -1.6470823e-01   7.0382729e-02
 -4.6047333e-01   7.4541583e-03
  2.2278807e-01   4.0173918e-02
 -1.2214860e-01   2.3201304e-03
  1.6020538e+00   2.0333573e-03
  5.7556158e-01   2.3015479e-03
  3.9457688e-01   6.8942592e-03
  1.9429272e-01   9.8491255e-03
  2.1061642e-01   1.0778965e-02
 -8.1527540e-03   4.8772700e-02
 -1.3752648e-02   1.6637746e-02
 -4.3642897e-02   4.2644139e-02
 -1.2914738e-01   2.2166731e-02
  6.4352371e-02   2.8357940e-02
 -1.2775282e+00   9.1535402e-03
 -8.1068039e-01   1.5940012e-03
 -2.4162319e-02   1.4122560e-04
  1.0842244e-02   4.4887479e-02
  7.3180270e-01   5.6164865e-03
 -1.4137882e-01   1.2932648e-02
 -1.5180860e-01   5.4567523e-02
 -2.7147505e-02   4.2772442e-02
  5.2745235e-01   2.4773730e-03
  1.9363930e-02   7.0190327e-03
 -4.3970544e-02   2.7316719e-02
 -2.8624704e-01   2.6766630e-02
  3.2102743e-03   2.8115751e-02
  9.3558007e-01   2.3892948e-03
 -2.0458753e-01   3.5216823e-02
 -6.7653340e-01   1.3634097e-02
  5.6827587e-01   7.4096280e-04
  2.0051444e-01   1.2013123e-02
 -6.1378229e-02   5.3086463e-02
 -2.9450628e-01   5.1501528e-03
 -8.2310736e-01   8.5099787e-04
 -5.0515276e-01   5.9091942e-03
 -1.6997838e-01   3.7733731e-03
  6.7815101e-01   1.3824699e-03
 -1.2376342e-02   8.8687018e-03
  1.7432480e-01   4.0759433e-02
  2.3456444e-01   9.4276629e-03
  4.9714427e-02   4.4408257e-04
  4.7774321e-01   1.6884550e-02
  1.2766584e+00   5.8153905e-03
  1.8011552e-01   3.3942357e-02
  1.9157605e-02   5.5759504e-02
 -2.2655142e-02   2.6886387e-02
 -5.0615400e-02   1.4215643e-02
 -3.4992665e-01   8.3750367e-02
  1.4625563e-01   6.1465222e-03
 -5.4446045e-02   2.0955006e-02
 -2.8009853e-01   3.1956024e-02
  2.1329375e-01   2.5740019e-03
 -7.6563966e-01   1.0780144e-02
  1.1211662e+00   1.1962528e-03
  2.4087873e-01   2.3172970e-03
  2.0346791e-01   2.0708032e-02
 -1.7648040e-01   8.8122226e-03
  2.4479248e-01   2.0704644e-03
 -1.0673929e-01   8.2850298e-03
 -1.1720207e-01   3.2719711e-03
 -5.0385529e-01   3.6498971e-02
  1.2897131e-01   1.0210863e-02
  6.2972888e-02   1.3639241e-02
  1.4125913e-01   1.5747849e-02
 -2.3188737e-01   2.0716285e-02
  2.7670851e-01   2.4185069e-02
  5.7365257e-02   1.6795922e-02
 -1.0592098e+00   1.1735290e-02
  5.4245847e-01   1.1525574e-02
  1.1296987e-02   1.7094702e-02
  2.5458074e-01   1.3063037e-02
 -7.4209824e-02   1.6701262e-02
 -1.5310130e-01   1.5008260e-02
 -6.8505591e-01   3.9648945e-03
  1.2205774e-01   8.4286340e-04
  1.7115436e-01   1.2161093e-02
  1.9275942e-01   4.5721778e-03
  1.5577328e-01   3.5469711e-02
  2.0339255e-01   1.8742596e-03
 -2.9802646e-02   2.2500012e-02
  4.1942099e-01   1.6491865e-04
  1.2076919e+00   3.8956441e-03
 -4.4934344e-01   2.0606180e-03
 -3.1796724e-02   9.7028865e-03
  5.9088188e-01   1.6286464e-03
  2.1486993e-01   4.7837954e-04
  4.4239759e-01   2.4564529e-03
  4.2298687e-01   3.8417353e-04
 -3.4456931e-02   4.4387039e-03
  2.6090088e-01   1.6166995e-03
 -5.0765604e-01   1.9054996e-03
  1.3364370e+00   5.7830522e-03
  7.8947049e-01   1.3059291e-02
 -4.6553634e-02   1.7635910e-02
 -3.8899243e-02   1.1531834e-02
 -1.8685663e+00   1.9656215e-03
  8.8875115e-01   2.9786858e-03
 -3.4433345e-03   4.6943347e-03
  3.0349272e-01   2.0891819e-03
  3.0990493e-01   3.1773525e-03
 -3.4547412e+00   8.0165692e-04
 -4.5095456e-01   6.9429297e-03
  2.8535193e-01   1.2871833e-03
  4.2208233e-01   4.6352673e-02
 -3.7684721e-01   5.4145679e-03
  2.9213026e-01   3.9639501e-04
  2.7692944e-01   8.1873760e-03
 -5.3423494e-01   2.5518292e-03
  4.8854437e-01   2.1817088e-02
 -2.5484696e-01   1.8426328e-03
  1.3165607e+00   1.4506272e-03
 -9.7643119e-01   3.3381037e-04
  1.1314273e-02   2.1517980e-04
  8.4942091e-01   1.1492756e-03
  1.2031677e-01   1.4071987e-03
  1.3598908e+00   1.4057849e-03
 -2.0830123e+00   2.2063506e-04
 -7.7162707e-01   1.7567935e-03
  1.8735735e+00   4.6980679e-03
 -1.1286068e-01   1.5703862e-03
  2.6971081e-01   3.9640759e-04
 -1.2344046e+00   6.7449635e-04
  8.6172312e-02   8.8656750e-03
 -1.2212075e-01   2.1314908e-02
 -6.8264169e-01   3.7046471e-03
 -6.6332586e-02   1.8757818e-03
 -1.2444640e+00   1.6552885e-03
  3.8953218e-01   4.4981376e-03
  6.7223030e-01   4.2138591e-02
  3.4890369e-01   3.4415504e-04
  2.0338325e-01   1.0948894e-03
  7.2823226e-01   2.0395268e-03
 -1.3639432e-02   6.1830496e-03
 -3.4280190e-01   7.9855546e-03
  8.1723100e-01   3.9717150e-03
 -1.2422038e+00   9.2315528e-04
 -6.5823710e-01   4.8555802e-03
  6.5413147e-01   9.0204412e-03
 -1.3237569e-01   4.1070417e-02
 -6.1885081e-02   1.0679787e-02
  1.2582308e-01   7.0946976e-03
 -2.7022651e-01   4.3066431e-02
 -2.1110564e-01   1.4784393e-02
 -4.7370422e-01   1.6387874e-03
 -1.6456135e-01   1.0451960e-02
 -2.7127057e-01   3.1881794e-02
  8.9251637e-01   4.5137666e-03
  6.5823913e-02   9.9770129e-03
 -1.5186447e-01   4.2064782e-02
 -4.3458290e-02   7.8085549e-03
  9.6253984e-02   2.9568647e-03
  2.1514736e-01   4.9839281e-02
  2.1052641e-01   2.0085266e-02
  6.6175513e-02   2.0869346e-03
 -2.4995093e-01   5.9495047e-02
 -5.4661956e-02   7.1488909e-02
  3.5937420e-01   7.2160922e-03
 -2.2756195e-01   5.7278378e-03
  2.3897573e-02   3.1332609e-03
 -2.6649702e-01   1.3435182e-02
 -1.1725378e+00   1.7901052e-03
  2.7671379e-01   3.9755651e-03
 -3.7637952e-01   2.0952501e-04
  3.6127735e-02   6.2029953e-03
 -2.0996657e-01   8.9612394e-04
 -1.8429194e-01   1.6930338e-02
  2.7960983e-01   1.4177730e-02
  8.5768446e-02   8.5354866e-03
 -1.2874072e-03   1.5472832e-02
  1.9181360e-01   1.4305230e-02
  1.2317754e-01   2.2555167e-02
  3.5937229e-01   2.0392094e-02
  1.6726877e-01   1.1523544e-02
 -1.3807157e-01   1.9975028e-03
 -2.6740938e-02   1.4347914e-02
  3.2314149e-01   1.0886460e-02
  8.7809883e-02   3.5471898e-03
  3.6037490e-01   5.2983705e-02
 -5.5015248e-01   3.6370074e-03
 -2.6524463e-01   2.4304396e-02
 -1.6981514e-01   9.5632588e-03
  7.8385193e-03   1.5521563e-02
 -1.9690124e-03   1.5381972e-02
  1.0604766e-01   3.9395534e-02
  1.1782023e-01   1.8072030e-02
 -1.0867683e-01   6.6717500e-03
 -4.3768317e-01   7.3449075e-02
 -5.3117388e-01   1.7767834e-02
 -2.8120779e-02   2.5052873e-02
 -1.7924203e-01   8.4428340e-03
  1.5974581e-01   1.6438985e-02
  1.1224861e-01   2.2162355e-02
  2.1249374e-02   2.1309346e-02
 -3.1879637e-01   2.6036043e-02
  6.4380777e-01   7.0895380e-03
 -1.9490859e-01   3.6126000e-03
 -1.2436036e-01   2.0274702e-02
 -1.8264192e-01   2.2438322e-03
 -1.0620287e-01   2.5159366e-02
  1.2259686e+00   6.3176490e-03
  1.9651210e-01   1.3880127e-02
  5.0675817e-02   3.8204473e-02
  3.5720941e-01   1.9329822e-02
 -4.4949850e-01   3.8201644e-03
 -1.1912988e-02   6.5424265e-03
 -9.7197190e-02   7.2876145e-03
  6.6630371e-02   2.5633292e-02
  2.0378467e-01   1.2134602e-02
  8.7825710e-01   1.4654960e-02
 -2.5099543e-01   2.0549815e-02
 -1.6797952e-01   2.3464268e-02
  1.5717718e-01   1.4515652e-02
 -2.9258358e-01   1.0676642e-02
  5.2033238e-02   1.6973672e-02
 -2.2107195e-02   1.6970588e-02
  1.2455728e-01   1.2202456e-02
  8.3053261e-01   2.1048484e-02
  3.6932677e-01   5.1867217e-03
 -8.5868493e-02   8.1924405e-03
  2.0244856e-01   2.3602927e-02
 -1.3775644e-02   3.1765740e-02
 -8.4570661e-02   7.4719735e-03
 -1.6433911e-01   9.0321340e-03
  1.4094353e-01   2.2660231e-02
 -4.6149991e-02   9.2663588e-03
 -2.7861968e-01   1.4069746e-02
 -3.1463519e-02   2.3797775e-02
  1.0899188e-01   7.9669449e-03
  4.1712302e-01   1.9012615e-02
 -2.4609341e-01   9.7294310e-03
 -3.9506122e-01   3.7719382e-03
  2.4552123e-01   4.9062118e-02
 -4.3554388e-02   5.3787328e-02
 -2.9141942e-01   3.9047342e-02
 -3.0731902e-01   3.6592456e-03
  1.5521488e-02   8.4070087e-04
 -5.2568197e-02   4.6127525e-04
 -1.0735508e-01   2.7933219e-02
 -2.1027811e-01   2.1910442e-02
  1.3193473e-01   6.9370558e-03
 -3.3906419e-02   1.8020717e-02
  6.8043876e-01   7.8543900e-03
 -4.3044254e-01   1.5836146e-02
  8.5390061e-02   4.4942461e-03
  1.2725957e-01   5.3124744e-03
  1.0475373e-01   1.5305582e-02
 -2.0506336e-01   2.2434900e-02
 -3.0908558e-01   1.8904079e-02
  5.4301064e-02   3.8236327e-02
 -2.2725573e-01   9.5206266e-03
 -2.0914690e-01   3.3665430e-02
  1.1223976e-01   4.0408835e-02
  9.6074305e-02   1.6762726e-02
 -1.1360063e-01   4.3173112e-02
 -1.0079734e-01   6.8275325e-02
  2.3410989e-01   1.2858682e-02
 -3.4552976e-01   2.1055210e-02
  1.8027509e-02   1.8140493e-02
  9.1680221e-02   1.6827365e-02
  2.9096001e-01   1.0501243e-02
  2.4834068e+00   4.8736314e-04
  8.0888443e-02   4.1899211e-03
  3.6022067e-03   3.5859942e-02
  5.2157328e-02   2.3776030e-02
 -1.8457583e-01   2.7560415e-02
 -3.0720714e-01   7.7615539e-03
 -1.3598314e-01   5.6916228e-03
  2.7160823e-01   6.1090691e-03
 -2.3418181e-01   1.4122265e-03
  1.6213119e-01   8.0789082e-02
 -1.5983585e-01   3.1054909e-03
 -1.9663997e-02   1.0441281e-02
  1.2556280e-01   1.2234862e-02
  1.1632581e-01   6.1651606e-02
 -3.5064649e-02   1.7852550e-02
 -2.6135686e-01   6.5995189e-03
 -2.0593211e-01   1.9442391e-02
 -5.5297501e-02   1.6379394e-02
  2.0580083e-02   3.5854112e-03
 -6.5270565e-02   2.8246816e-02
 -2.2725517e-01   5.2873697e-02
 -4.0387163e-01   1.6212475e-02
 -4.3698090e-01   1.3447279e-02
 -1.4442652e-02   1.6813790e-02
 -6.6215829e-03   4.2974740e-02
 -3.3944836e-01   7.8674906e-04
 -2.7645594e-01   1.2192328e-02
 -6.2248951e-01   2.7966598e-04
 -1.7317023e-02   3.1364392e-02
 -8.9309976e-02   5.7937458e-02
 -3.2888317e-01   1.1987053e-02
 -1.3331121e-01   9.4920248e-03
 -2.1454635e-01   1.5800396e-02
 -4.2888221e-01   2.3754792e-02
  7.3940389e-02   5.7756294e-02
  1.1204154e-02   2.8161321e-02
 -4.3838318e-02   6.8193236e-03
  8.8792332e-02   1.5080188e-02
 -5.5651486e-01   7.2569037e-03
 -1.1922415e-01   4.3257792e-02
  2.9363189e-02   2.4764262e-02
  6.4639524e-02   1.5668899e-02
 -7.1390972e-02   4.4403475e-02
 -8.6136706e-02   6.5362621e-03
 -1.5987457e-01   2.2402886e-02
  1.0093692e-01   2.7529778e-02
 -1.2422687e-01   7.1074720e-03
 -1.1604051e-01   5.8603324e-03
  6.4940912e-01   1.4913442e-02
  2.5170010e-01   1.8999521e-02
 -3.1323388e-02   4.3392640e-02
  2.6263779e-02   2.3347089e-02
 -4.2424828e-02   9.1659622e-03
 -6.5859556e-01   3.7780570e-05
 -9.3501961e-01   1.8588851e-03
 -6.6012037e-01   1.3250577e-04
 -1.9802892e-01   1.9811362e-03
 -6.4676625e-01   5.8771309e-04
  8.6304531e-02   7.6435469e-03
  3.1242028e-01   3.1020991e-03
  5.1731831e-01   2.0526392e-02
  1.1424762e-02   5.4776864e-03
 -3.9752948e-01   2.1954009e-02
  4.0932399e-01   1.1656029e-03
 -2.1274865e-01   2.4525556e-03
 -6.5142876e-01   1.4022666e-03
 -2.7269188e-01   7.4333204e-03
 -1.1383239e-01   2.1956375e-02
 -1.4909419e+00   2.5457777e-03
 -9.9427307e-01   2.6601233e-04
  1.7309715e-01   1.7428966e-02
  1.4975022e-02   1.0632878e-02
 -1.4074864e+00   1.1507142e-03
  1.6959313e-01   3.0110825e-03
 -2.4438176e-01   2.6430686e-03
  1.0410464e-01   7.1432148e-03
 -8.9289457e-02   4.3243635e-02