 -1.9568434e-01   1.7023217e-03
 -1.2327911e+00   7.5660396e-04
  5.2370623e-02   3.2436880e-03
  3.5026664e-01   1.7323440e-03
 -3.3522964e-02   4.8862202e-03
  3.5070357e-01   1.5156403e-03
 -1.2879854e-01   1.7037559e-02
 -9.1738313e-02   1.3519630e-02
 -8.4913194e-01   9.4925624e-04
  5.6272494e-03   1.8661322e-02
 -6.7597203e-02   1.6043619e-03
 -5.0957095e-02   1.5856598e-02
  4.8181295e-02   3.2495216e-02
  3.2754958e-02   2.0962327e-03
  1.1691270e-01   8.2433186e-03
  1.1607716e-02   4.2648925e-03
  2.3374438e-02   3.8879169e-03
 -2.5555275e-02   3.2613494e-03
  1.8574443e-01   2.7076006e-03
 -4.2573895e-02   5.8210255e-03
  1.0330133e-02   1.9794906e-02
 -1.8851911e+00   2.5225530e-04
  7.0283979e-01   5.1611540e-04
  4.6293192e-02   1.7447038e-02
  7.1475130e-01   1.7586803e-03
  1.9736707e-02   2.3208866e-03
  1.0608875e-01   1.2831056e-02
 -6.2852348e-03   9.5593370e-03
 -2.8845154e-02   8.9590694e-04
 -1.2177605e-01   1.2065874e-02
  1.4320743e-02   5.0441432e-03
 -1.1308715e-01   2.8452738e-03
 -1.7718641e-02   1.2805402e-02
  3.5379025e-01   4.3179659e-04
  1.7361237e-01   1.6438326e-02
 -1.7467553e-02   1.2929877e-02
  1.6459831e+00   1.2402610e-03
  1.1163384e-01   3.4811690e-02
  8.7218396e-02   1.8592626e-02
  6.2751107e-02   1.4032974e-02
  1.2318338e-01   7.1694376e-03
  2.5297849e-02   1.1499599e-02
  2.2800334e-02   4.0228234e-04
  6.9348730e-02   8.3839642e-03
  3.7211444e-02   3.6764935e-02
 -1.2433071e-01   2.9787999e-03
  8.7957397e-02   1.5363934e-02
  3.0699104e-02   4.8944037e-03
 -2.8505350e-02   1.1111294e-02
  4.0801395e-02   2.6313199e-03
  1.1072266e-01   1.2533166e-02
 -1.6779780e-02   1.5522401e-03
 -2.1907784e-02   1.6754253e-02
  4.7519855e-02   1.1206922e-02
  1.2185718e-02   2.6873801e-02
  3.2084577e-03   7.0775710e-03
  7.1110435e-02   4.7464073e-03
 -3.8234610e-03   1.3069970e-02
 -1.6606723e-01   2.3549526e-04
 -1.0603151e-02   1.8113062e-02
 -8.8041075e-02   1.0423828e-02
  6.7505419e-02   8.5195489e-03
  2.4611501e-01   1.2488180e-03
  6.9192812e-02   1.3901925e-03
 -9.8639866e-03   1.0320584e-03
 -1.2516312e-02   1.9748129e-03
  7.5913370e-01   1.0618102e-03
  8.3544403e-02   1.5766166e-02
 -2.3183651e-02   1.0084348e-02
 -8.0569915e-02   3.5191751e-03
  7.0628606e-02   4.0960386e-03
  4.3350723e-02   7.8419019e-03
  1.0347477e-01   2.7022768e-02
  9.6096672e-02   1.2268147e-02
  1.0756277e-02   3.4189888e-03
  5.8578100e-02   1.0138043e-02
  7.9816476e-02   1.4877338e-02
 -7.9158299e-02   1.0013101e-02
 -1.1970966e-01   6.2288400e-03
 -7.6260064e-03   1.0365451e-04
  9.2676051e-02   2.8402519e-03
  5.2324954e-02   2.6036074e-02
 -2.0225516e-03   1.1064619e-02
 -1.4961761e-02   1.3836434e-02
 -3.6120117e-02   3.3042203e-03
  6.8389936e-03   1.6374065e-02
 -3.9701574e-02   2.1576477e-02
 -3.4823394e-03   9.1778217e-03
 -1.5968336e-02   3.0731920e-03
 -2.7331841e-01   1.6776664e-02
  8.7486759e-02   5.3811008e-03
 -8.6158782e-02   1.7534919e-02
 -3.9308351e-02   5.9306957e-03
 -1.9426613e-01   2.9290842e-03
 -2.1924488e-01   2.3432672e-03
  8.9775567e-04   6.3811750e-03
 -1.9259462e-01   3.2254534e-03
 -7.0361272e-02   5.8205849e-03
 -1.1119401e-01   1.0844706e-02
 -1.5363233e-01   1.4788288e-02
 -2.4067788e-01   1.1378028e-02
 -7.3817216e-02   6.8051592e-03
  2.6025012e-01   1.7434498e-02
 -2.9293049e-02   5.3365957e-03
 -1.3823076e-01   9.4760489e-03
 -6.3634670e-01   4.3960803e-04
  1.6439255e-02   2.8776783e-03
 -9.7083747e-01   1.0587289e-03
 -3.8887557e-02   4.0986584e-03
  9.9592812e-02   7.9053417e-03
  3.2500334e-02   7.1866969e-03
  8.2595266e-02   1.8091490e-03
  3.3521641e-02   1.4068729e-02
 -3.2591664e-03   5.6715617e-03
  4.1342381e-02   2.6283751e-03
 -2.5969681e-01   1.2778457e-03
  3.5770270e-01   1.8108776e-04
  1.0540824e-01   1.3870439e-03
  1.8251577e-01   7.6117031e-03
  8.9979976e-02   3.8203201e-03
  1.1301358e-01   9.7402104e-04
 -2.6088250e-01   4.1179671e-03
  1.7972168e-01   1.9562144e-02
  1.1899721e-01   3.0661437e-03
  1.4012735e-01   1.5173073e-02
  3.8144171e-01   1.6198504e-03
 -2.3163648e-01   4.6007666e-03
 -2.4785005e-01   3.9656302e-03
  8.6340837e-02   8.2695046e-03
  1.4936842e-01   7.4023358e-03
 -3.8762215e-01   5.3939037e-04
  2.1424818e-01   7.8166518e-03
  3.7621167e-01   4.3340130e-03
 -4.5618601e-02   1.8250736e-04
  9.0698246e-03   1.3587470e-03
 -1.3353083e-01   1.0303967e-03
 -2.0521377e-01   4.0751412e-03
 -3.3013344e-01   2.0605401e-04
  9.0903081e-02   2.8027063e-03
 -1.1227174e-02   1.0043434e-03
 -6.7105991e-01   1.4576390e-03
 -9.5057511e-01   9.0747024e-04
  4.3034986e-02   1.5502191e-02
  8.2478845e-01   4.3171179e-04
 -5.0462328e-02   8.3029699e-03
  2.1593239e-02   8.2259194e-04
 -7.9967074e-02   7.0989388e-04
 -2.2356251e-02   1.8586993e-03
  2.7001140e-01   9.2277955e-03
 -1.4916964e-02   8.0687962e-03
  2.1405859e-02   1.3529715e-03
 -1.3727862e-01   3.8266266e-03
 -3.6807723e-02   1.3291446e-02
  2.6957631e-01   2.1708224e-02
  5.3946432e-02   3.0653088e-04
  6.8216264e-02   5.5604265e-04
  2.7277219e-01   3.1927596e-03
 -2.7865043e-01   8.2172675e-04
  4.4888128e-02   2.0723738e-02
 -1.8617104e-01   5.4561812e-03
 -7.1356505e-02   4.6990882e-04
 -5.7425201e-02   8.9762025e-03
 -6.1423283e-02   1.4795022e-02
 -4.8892200e-02   3.0954990e-03
  1.1129815e-02   1.2740165e-03
  1.8503442e-02   1.9751273e-03
  1.8491289e-02   1.9254296e-03
  2.6800331e-01   1.4701096e-04
 -7.2842397e-02   4.6215393e-03
 -1.4087158e-02   4.1900198e-03
 -1.2343758e-01   1.3214957e-03
 -1.1334301e-01   3.5764172e-03
  5.0799940e-02   5.8419597e-03
 -1.4300713e-01   1.2161427e-02
  1.5590215e-02   4.5751538e-03
 -6.3581869e-02   4.1627362e-03
 -3.1841088e-02   7.2408225e-03
  5.5521959e-03   1.7717360e-02
  5.7517227e-02   1.0224551e-02
  1.9192280e+00   1.2062063e-04
 -3.5145007e-02   3.1824054e-03
  1.7233366e-01   3.2714505e-02
  2.4686028e-01   4.3786168e-03
  1.0973929e-02   7.2841207e-03
 -1.3373706e-01   4.8627728e-03
  7.9578266e-02   2.3066124e-03
  3.0363612e-03   1.0845416e-02
  3.8785044e-02   2.2951891e-03
 -1.8373616e-02   1.4816031e-03
 -6.0662508e-02   6.5756100e-03
  2.2495513e-01   6.3055456e-03
 -7.6235019e-02   2.0503718e-02
 -6.4862043e-02   2.8446531e-03
 -1.8695237e-02   9.8074786e-03
 -5.0801072e-02   1.5573578e-02
 -1.5848927e-02   5.6190477e-03
  1.5418881e-02   6.0229828e-03
  4.2954482e-02   8.5890824e-03
 -7.2323859e-02   3.2825661e-03
 -5.3989682e-02   4.6078344e-03
  4.7035340e-02   2.5351632e-03
  3.8320094e-02   6.8921228e-03
 -1.3586166e-03   1.2507015e-03
  1.3572192e-01   6.3416595e-03
 -4.5630466e-03   1.1637029e-02
  1.8334297e-02   6.0815928e-03
 -7.7582315e-02   9.5230731e-04
  1.6209332e-02   6.6270465e-03
 -2.8224844e-02   3.2111229e-03
 -7.3530756e-02   4.3897275e-03
  1.3308948e-01   1.1070953e-02
  2.5529444e-01   2.9877380e-03
  2.7641831e-02   6.0576494e-03
  6.6548385e-02   9.2623737e-03
  8.2347751e-02   5.3625102e-03
  1.1636303e-01   8.5248891e-03
  3.3828355e-02   2.8846443e-03
  3.5217354e-01   3.7572356e-03
 -1.1916090e+00   8.4264280e-04
  1.8071719e-01   4.5261111e-02
 -3.0357176e-01   2.4602520e-03
  9.7356409e-02   5.1427013e-03
 -5.8642364e-01   6.0416847e-03
  1.4963971e-03   4.6123033e-03
 -1.2599802e-01   1.1452251e-02
 -8.0204472e-02   7.5031416e-03
  5.5158171e-03   2.4553796e-02
 -3.0186075e-01   7.9689370e-03
 -1.4030245e-02   8.8827070e-03
 -9.9010813e-01   3.6200010e-05
 -3.9909476e-01   1.7456794e-03
  6.0428340e-02   1.7602628e-03
  1.1603386e-01   2.7554015e-02
  4.8428230e-02   1.4747559e-02
  1.7496818e-01   1.4699099e-02
 -1.0595417e-01   3.6148257e-03
  6.4980015e-02   2.4166792e-03
 -2.3346245e-02   4.4378135e-03
 -1.4427733e-02   1.7950151e-02
  1.7883567e-02   2.0111877e-02
  3.5715044e-02   1.3578194e-02
 -5.5810090e-02   1.7577490e-02
 -1.8813413e-02   5.2781901e-03
  8.2622677e-02   2.9952388e-02
 -8.2932025e-02   9.7916266e-03
  2.6481625e-02   1.0306464e-02
  7.8673017e-01   9.5075095e-04
 -8.3900869e-02   2.4068916e-02
  9.3167676e-03   1.1851102e-02
  1.4578955e-01   6.0180882e-03
  1.4124628e-02   6.3240416e-03
 -2.0067681e-02   3.1733423e-02
 -3.9488446e-02   7.2546131e-03
  4.1483946e-02   1.7921150e-02
 -1.8135816e-01   6.4768204e-03
 -4.0710665e-02   7.9850610e-03
  4.3672878e-02   8.2014530e-04
  3.5320941e-02   2.1843463e-03
 -3.3910442e-02   1.5604515e-03
 -8.4374571e-01   6.7400641e-04
 -1.2675041e-01   1.2970180e-02
 -1.7614663e-01   2.4830641e-03
  1.3368615e+00   5.1049242e-04
  3.5785094e-02   2.3953526e-03
 -3.4265712e-02   3.0292405e-03
  5.1826805e-02   2.5511789e-03
 -7.9206698e-02   8.8724168e-03
  1.6907923e-01   5.0390665e-03
 -9.4115309e-02   4.2072039e-02
  5.7545800e-02   3.1325039e-03
 -1.7852703e-02   2.7639449e-03
  1.0642448e-01   1.9724772e-03
  2.9357204e-02   1.7583204e-02
  2.0017326e-02   2.8608253e-03
 -1.8200219e-01   3.0963128e-03
 -3.8097840e-02   4.5521609e-03
  6.9999328e-04   5.9957821e-03
 -6.4109978e-03   8.2591213e-03
 -2.2072304e-02   1.3196408e-02
 -6.8531156e-02   1.0878764e-03
 -1.1097943e-02   1.1627336e-02
  4.7860075e-02   1.5421761e-02
  4.5289090e-03   1.3265102e-03
 -1.1057650e-01   1.4330511e-02
  6.3725024e-02   1.2806500e-02
 -4.9111769e-02   7.3831794e-03
  2.2626255e-01   3.2125608e-04
 -1.0882993e-02   1.7522719e-03
  2.9268238e-01   9.7234076e-04
 -1.5000531e-02   6.9739181e-03
  1.3204814e-01   8.7758410e-04
  1.4897187e-02   1.0837632e-02
  3.7920831e-03   1.3897137e-02
  1.8943059e-01   4.3026530e-03
 -9.2556137e-01   8.3736150e-04
 -1.0962857e-01   7.4051216e-04
 -1.2407672e-01   3.6485661e-03
 -3.0964553e-01   1.0205529e-03
  3.5225192e-01   1.0030334e-02
 -2.7442038e-02   3.7382008e-03
 -1.7971065e-02   1.7398028e-03
 -1.1073902e-02   1.8027677e-03
 -1.4546399e-01   4.2670104e-03
 -5.2611604e-02   7.9165995e-03
 -3.7199098e-01   1.2767570e-03
  3.1927422e-02   3.9331988e-03
  6.2911160e-02   1.1011253e-03
 -4.0025227e-03   1.1050875e-02
 -8.9795046e-02   7.1319342e-03
 -4.4096190e-02   2.6184801e-02
 -3.6938789e-01   1.3040543e-03
  1.6708873e-02   3.6087068e-04
 -1.4546904e-01   4.3248961e-04
 -3.2069549e-02   1.9393585e-03
 -3.2890123e-01   2.3249295e-03
  9.2367642e-03   2.2024887e-03
  3.1207597e-03   4.1321514e-04
 -4.5384347e-01   2.0942914e-04
  8.1161186e-02   4.5829988e-03
 -1.6735856e-01   1.7120393e-02
  2.4105825e-02   2.5190341e-03
 -1.4247807e-02   1.5757927e-03
 -2.2322409e-02   2.2263560e-04
 -2.0039028e-01   1.4979195e-02
  1.8781733e-02   5.3446293e-03
  2.5387689e-01   2.2572007e-03
 -8.4760636e-02   1.3127280e-03
  3.2757167e-02   1.9645595e-04
 -1.1722119e-02   1.8732907e-02
  3.9678696e-04   6.1315876e-03
 -6.1178211e-02   4.6661864e-03
 -1.5167846e-01   1.4199957e-03
 -1.1606265e-02   5.8087846e-03
 -2.7931878e-02   8.5528744e-03
 -1.3042048e-01   3.0315176e-03
  3.1470947e-02   1.9858086e-02
  4.3757749e-03   2.1511507e-03
  1.8802103e-02   2.5317501e-02
  3.7711721e-02   2.3043938e-02
 -3.3991437e-02   3.3201794e-03
 -7.3901042e-03   2.0450493e-03
  2.4411721e-02   9.6544856e-03
  3.3364415e-02   8.6725475e-03
  3.4573451e-01   1.1000928e-03
  1.2587124e-01   4.6388792e-05
  2.7498247e-02   2.2617665e-03
  5.6927327e-02   2.2931469e-03
  6.5695547e-02   5.2235690e-03
 -1.6625301e-04   1.4579645e-02
 -8.7226845e-02   6.1856438e-03
 -3.0954225e-02   2.5310731e-03
  1.6677527e-02   1.2768810e-02
 -1.2652475e-01   3.8060308e-03
  3.2441264e-03   5.5105346e-03
 -1.1873090e-01   5.1529650e-03
 -2.4838109e-02   3.1777029e-03
 -9.8502621e-02   1.8250626e-02
  6.4369380e-02   1.6773509e-02
 -1.8239145e-01   3.8151902e-03
 -4.7417617e-01   1.7857809e-03
  5.1748652e-02   1.1981348e-02
 -3.0500213e-02   3.1643882e-02
 -3.8227677e-01   6.3210086e-04
  5.0839998e-02   1.0764397e-03
  1.0407604e-02   4.7259657e-03
  2.8563946e-01   3.4507413e-03
  9.3989410e-02   1.6307367e-02
 -9.3401588e-02   1.3825651e-03
  3.4302071e-02   3.6238448e-03
  2.3198397e-01   2.2253861e-04
 -1.2924328e-02   2.0340452e-02
 -2.2457673e-03   5.6013376e-03
 -1.1043237e-01   9.1761425e-03
  8.3498962e-02   2.6753729e-03
 -7.6380998e-01   8.2108127e-05
 -5.5082239e-02   1.6935125e-02
  9.2735976e-02   8.8834008e-03
 -2.4916612e-01   2.4001709e-04
  2.6180884e-01   9.0809725e-04
 -1.8785045e-01   7.9950672e-03
 -1.4062780e-01   1.2814031e-02
  1.2393545e-01   1.4593127e-02
 -8.4918268e-02   1.0560662e-02
  7.3378876e-02   5.1069823e-03
 -2.9455928e-02   1.3626411e-03
 -1.4420194e-02   1.0170170e-02
  4.6194877e-02   2.1834679e-02
  8.8995069e-02   7.6799677e-03
  4.9497968e-01   4.1778677e-04
  5.5605404e-02   3.3201375e-03
  1.0715177e-01   8.9792563e-03
 -1.2693644e-02   2.9084682e-02
 -5.5914335e-03   4.3015182e-03
  8.7459266e-02   3.3732406e-03
  6.1974637e-03   1.4190106e-03
  4.1129738e-02   1.1325995e-02
  6.8671599e-02   2.1407280e-02
 -7.1125723e-02   7.8849010e-03
  1.6059341e-01   3.7235611e-03
 -6.4514749e-02   1.7758962e-02
 -1.2227125e-02   4.4990014e-03
  2.0936191e-01   1.1841683e-02
 -3.3576664e-01   3.9150012e-03
  7.4078441e-03   7.9156645e-03
 -1.9293426e-01   6.3715959e-03
 -6.6342063e-02   2.5175868e-02
  5.5155862e-02   1.2255902e-04
  1.4084369e-01   1.3014819e-02
 -3.4152082e-01   1.1252819e-03
  2.9363432e-03   1.0947484e-02
 -5.0901040e-02   7.5513655e-03
  2.3317452e-01   4.6984553e-02
 -4.6688210e-02   1.0728059e-02
 -9.5280804e-02   1.0123022e-02
 -1.8516948e-02   6.1397636e-03
  1.8719447e-01   1.2075532e-02
  8.5239045e-02   1.5901493e-02
  3.8520731e-02   2.5613341e-02
  3.1337161e-02   5.7508936e-03
 -5.7471078e-02   1.3974790e-02
  1.7088458e-02   7.2321913e-05
  3.8059372e-02   1.0211078e-02
 -5.1702831e-02   2.0023705e-03
 -3.0551631e-02   1.0946241e-02
 -5.3584176e-01   6.6692970e-05
 -1.7372774e-01   2.1957479e-02
 -3.8904410e-02   1.3418741e-02
  3.0773152e-02   4.6245884e-03
 -2.0209186e-01   3.6286972e-03
 -1.3683121e-01   9.7684031e-03
 -4.6808932e-02   1.6267741e-02
  2.4601966e-01   7.1722972e-03
  6.4860868e-01   3.0149063e-03
  4.7514397e-03   1.1550192e-02
  1.2033086e-01   7.8383051e-03
 -2.1245179e-03   1.6057830e-02
  1.7869429e-01   4.7240252e-04
 -9.0885691e-02   6.5823193e-03
 -6.2249750e-03   4.3918141e-03
  2.5833793e-02   2.2105530e-03
  1.3616329e-01   9.7826812e-03
 -1.3105889e-01   3.0513266e-02
  1.5118925e-01   9.4798667e-04
 -5.8147573e-01   2.8588201e-03
  9.5406389e-03   8.4711872e-03
  1.4640887e-01   5.1248539e-03
  2.1671122e-02   1.8944660e-02
  1.4616553e-03   1.1509067e-02
  3.4017101e-02   7.2978260e-03
  5.3358383e-02   1.5045507e-02
  1.5353668e-01   2.7820859e-03
 -3.5934817e-02   1.7791303e-02
  3.0681537e-02   6.7515871e-03
  1.8849532e-01   7.3823752e-03
 -8.0085629e-01   9.5565250e-04
  1.3851312e-02   6.9393832e-03
  2.8708002e-03   1.4433988e-02
  2.3563844e-01   9.5754806e-03
  4.0643997e-02   2.4562655e-02
 -6.5688691e-03   2.1515183e-02
 -5.4608271e-02   5.3903656e-03
  7.9251062e-03   1.6586633e-02
  2.0481417e-02   2.2944582e-03
  4.7361845e-01   5.7400588e-04
  9.1903307e-02   9.0168156e-03
 -2.3563194e-01   9.0653421e-03
  9.5752757e-03   1.0485971e-02
 -2.1928439e-01   5.8536269e-03
 -1.0958014e-01   1.2864735e-03
  1.3750744e-02   1.8283706e-02
 -5.3236179e-02   1.0380333e-02
  1.0406502e-02   4.8846724e-03
 -6.6036172e-02   9.4542997e-03
  1.2041099e-01   4.0404652e-03
 -1.0683830e-01   9.0642320e-03
 -2.5374791e-02   7.7735065e-03
 -1.4412932e-01   1.7594319e-02
  1.7787622e-01   1.6540641e-02
  4.9244642e-02   1.4013134e-02
  6.2752768e-02   4.2464365e-03
  4.7823925e-02   1.1246230e-02
  1.0034884e-02   3.0034385e-03
  1.1260086e-01   2.3559297e-03
  5.0416518e-02   5.4608160e-03
 -5.5927848e-03   7.8329621e-03
  1.7176922e-02   4.9318536e-03
  4.3346684e-02   4.6010562e-03
  3.7517291e-02   1.1988896e-02
  2.8557971e-02   1.5167489e-02
  1.5892992e-02   1.9057395e-02
  1.2002308e-01   1.6756997e-02
 -2.9305320e-02   1.4635657e-03
 -7.7917948e-02   4.1176588e-03
  7.0737444e-02   6.7926180e-03
 -6.8414845e-02   1.9277204e-02
 -3.7615934e-01   3.4164963e-04
 -7.4055538e-02   1.2315763e-02
  9.5507920e-02   8.1204996e-03
 -2.0263461e-02   1.8933296e-02
 -4.9111478e-02   4.7511025e-03
 -1.7154069e-01   1.6697723e-02
  9.1822423e-02   3.8768840e-04
 -1.5279549e-02   8.8575445e-03
 -3.0275545e-01   3.6457789e-03
  2.8559628e-01   1.7079780e-03
  6.3579515e-02   9.1848271e-03
  4.9421143e-02   8.6671636e-03
 -6.5793917e-02   3.5120153e-03
  3.3273403e-02   1.3118087e-03
  3.1716458e-02   4.4745617e-03
  8.1717908e-02   7.5018094e-03
 -2.7974373e-02   4.0687779e-03
  1.8550294e-02   2.6654319e-03
 -3.1535625e-02   2.1271694e-02
  2.4641778e-02   4.2285101e-04
  1.4169873e-02   2.5617457e-03
  7.0149563e-02   4.2190677e-03
 -2.0572908e-02   2.1486521e-02
 -9.2708804e-02   8.2115810e-03
 -1.2345014e-02   1.9444341e-02
 -1.6446209e-01   1.1162432e-03
 -1.9857690e-02   1.6540211e-02
  1.4411829e-01   1.5770628e-03
 -1.4443679e-02   1.0539891e-02
 -3.9227037e+00   4.8137383e-04
  6.0118943e-02   2.1116322e-02
  3.3887908e-01   6.5387175e-03
 -1.5490672e-01   8.3395140e-03
  4.7416333e-02   4.3867763e-02
  9.1927516e-01   2.9785294e-04
  7.3319517e-02   2.0868637e-02
  2.2025227e-03   1.4111988e-03
  2.9729530e-02   1.8851737e-02
  1.7428591e+00   7.1549625e-04
 -1.4393792e-02   7.0850379e-03
 -4.3669589e-02   8.7060584e-03
 -2.2271101e-01   7.9179002e-04
 -1.0498719e-01   1.6776858e-02
 -1.4367332e-01   4.5889875e-04
 -1.7760970e-01   6.2223421e-03
 -1.9296284e-01   7.4524520e-04
 -6.0141742e-02   4.6003112e-03
 -2.3034124e-02   2.3914838e-02
 -7.4975535e-02   2.3689914e-02
  2.4348754e-02   5.0624465e-03
  1.3308312e-01   6.1970982e-03
 -3.7476599e-02   5.8895978e-03
 -1.0658979e+00   4.0999183e-04
  4.3090615e-02   7.3812911e-03
  1.9851173e-01   5.1534208e-03
  1.0792743e-02   9.8725501e-03
  2.5284950e-02   1.1250315e-02
  2.0148795e-02   2.9518749e-03
 -3.6431208e-02   1.1615518e-02
  1.6994220e-01   2.2967248e-03
 -2.0000678e-02   5.4233284e-03
  2.7259720e-02   1.7729936e-02
 -1.2308722e-03   3.5229230e-03
 -4.5332413e-02   5.6448788e-03
 -9.2713058e-04   8.9384802e-03
  7.8301601e-02   1.8949587e-03
 -2.9030470e-02   8.3104242e-03
 -5.6669183e-02   2.3460323e-02
 -1.5652537e-01   7.5579435e-04
 -4.2746209e-02   2.4167979e-03
 -1.6750519e-01   7.3076813e-03
  3.8694090e-01   1.7903389e-03
  1.4209835e-02   1.9397100e-02
 -1.4513692e+00   6.0067524e-04
  1.1694939e-01   7.4541999e-04
 -1.1658624e-03   1.0096066e-02
 -1.4484779e+00   1.8690746e-04
 -4.7122765e-02   1.1642019e-02
  1.0590684e-01   1.2764649e-02
 -7.5197414e-02   1.0687804e-02
  5.1988367e-02   2.9921681e-03
  1.0280318e-01   4.1462337e-03
 -2.4517488e-01   3.0500855e-04
 -3.0018564e-02   8.6227087e-03
  1.2887746e-01   6.9620390e-03
 -4.5420796e-02   2.8702704e-02
  3.1309653e-02   7.8867218e-03
 -8.0620140e-02   1.7778430e-02
  3.4342464e-02   1.3589462e-02
 -1.3952605e-02   1.2020638e-02
  5.3682864e-02   2.7219211e-03
  5.0986260e-02   6.9108517e-03
 -1.4528462e-01   4.0240218e-03
  8.7251356e-03   1.9601937e-02
  9.2973217e-02   2.2593547e-02
 -1.1435279e-01   1.1850707e-02
 -1.6520388e-03   2.0862157e-03
 -2.5228012e-02   2.5566161e-02
 -5.9330069e-02   3.5421792e-03
  5.9278440e-02   1.9937826e-02
  3.7123635e-02   3.1055044e-02
  4.6139911e-02   2.1218299e-03
 -7.3807716e-02   5.8898036e-03
 -1.2370034e-01   1.7494470e-02
 -6.0485587e-02   1.1716714e-02
 -6.7281887e-02   5.7570371e-03
  6.5188713e-02   5.2286428e-03
 -1.2218427e-01   1.9360756e-04
  7.6017424e-02   5.8788154e-03
  6.0408008e-01   4.8685711e-04
  5.1065725e-01   1.0024991e-03
  3.9878747e-04   4.1808225e-03
  8.7226555e-02   8.7537346e-03
  6.2313661e-02   1.4967749e-02
 -2.2118701e-02   2.3403622e-03
 -2.3813931e-02   3.2868635e-02
  4.4244369e-03   1.1843379e-03
  2.2155307e-01   4.6527092e-03
 -5.7190788e-01   3.7899518e-03
 -8.0354548e-01   1.1230449e-04
 -1.3189838e-02   1.0088661e-04
 -5.2407348e-01   1.2914765e-03
  7.8314081e-02   1.6804181e-02
 -3.5687577e-04   4.1275173e-03
  3.7588142e-02   1.0880676e-02
  2.1819381e-02   1.0632960e-02
  5.3945452e-02   3.2815542e-03
  2.8049719e-01   3.3958124e-03
  1.8721934e-02   1.1255804e-02
  5.0616331e-02   1.2227322e-02
  2.8633393e-02   2.0944022e-02
  2.8928059e-01   5.9178513e-03
 -3.5463229e-02   6.7015537e-03
 -1.5823555e-01   1.7489581e-03
  1.5921833e-01   4.2554880e-03
  7.7784069e-02   5.0132959e-03
  1.1556248e-01   5.3268010e-03
 -6.3795649e-02   3.2261221e-03
 -8.1171769e-01   6.6700806e-05
 -7.9057366e-02   1.7820884e-03
 -1.8043387e-03   3.3048722e-03
  7.3897463e-01   2.2436515e-04
 -3.1796282e-03   4.7117766e-04
  3.9939392e-02   1.2155439e-02
 -9.7595580e-02   4.3802103e-03
  2.0822782e-02   5.4835813e-04
 -7.0873730e-02   4.4867327e-03
  5.9319085e-01   2.9748904e-03
  3.9102463e-03   4.3746685e-03
  3.6723614e-02   2.0486336e-02
  9.6380390e-02   3.2945287e-03
 -1.3963013e-02   1.5645573e-02
  1.3287590e-01   2.1423660e-02
 -1.8816754e-01   6.4557795e-03
  1.1370745e-02   1.6362000e-02
 -4.5377053e-02   1.5961053e-02
  1.4787711e-01   6.1719248e-04
  1.4014716e-01   1.1981558e-02
  1.0923568e+00   1.6182088e-04
  3.2295108e-01   5.0378288e-04
  1.5163517e-01   1.4791409e-02
  5.3620346e-02   1.3070391e-02
  1.0062402e-01   6.1425623e-03
  9.0561539e-02   6.2066130e-03
  4.7501788e-02   3.3058734e-03
 -5.0982192e-02   6.5539200e-03
  8.7337233e-02   5.2803941e-04
  7.9449475e-02   6.6857105e-03
 -1.9226849e-02   6.5307808e-03
 -1.2547984e-03   2.0174652e-02
  6.7869522e-02   2.5824029e-02
  4.2124931e-02   1.1405436e-02
 -7.6688759e-02   2.8037438e-03
  1.6258816e-01   3.1807413e-03
  4.0731698e-02   7.4083521e-03
 -3.5552092e-02   9.1011394e-03
 -1.9537087e-01   1.0757210e-02
 -2.7804540e-02   3.1566333e-02
 -7.3161131e-01   9.0402394e-04
  1.2524818e-01   1.0310684e-04
 -9.3021899e-02   1.2310920e-02
  1.2957801e-01   3.0719878e-03
  3.9111316e-02   4.9453182e-03
  6.0279060e-02   1.6651420e-03
 -1.4192742e-01   1.8916639e-02
  4.3289194e-01   2.0493801e-04
  4.0802520e-02   2.2723058e-02
 -3.3591142e-01   1.1057463e-03
 -9.0579279e-02   2.3242552e-02
  6.0561585e-01   3.7288717e-03
  2.2940038e-01   1.7921788e-04
  4.9914426e-01   1.1653414e-03
  4.5446914e-01   9.2806027e-04
 -3.1409952e-01   3.9909016e-03
  3.1381485e-01   3.0801666e-04
 -5.7591981e-01   1.3040884e-03
  1.2643725e+00   1.9703147e-03
  2.2328311e-01   6.3702241e-03
  1.7373590e-01   6.9219796e-03
  1.1673582e-01   5.3173299e-03
 -9.9847966e-01   1.2912170e-03
  7.1556991e-01   7.0367113e-04
  7.9789255e-03   2.4959312e-03
  2.2895651e-01   4.1583912e-03
  2.1896483e-01   1.4864503e-03
 -3.4118073e+00   4.0538661e-04
 -4.9126324e-01   2.9252502e-04
  1.4222184e-01   2.1753376e-03
  6.0373956e-01   8.4180413e-03
 -2.8636914e-01   1.2648270e-03
  2.1069056e-01   9.4879774e-04
  3.5401428e-01   6.6002255e-04
 -3.5510522e-01   2.7205021e-04
  8.1249738e-01   8.9316731e-03
 -2.3779178e-01   1.0912161e-03
  1.1928133e+00   6.3418184e-04
 -9.8516315e-01   2.8574490e-04
  1.5692759e-02   4.5254921e-05
  1.0022107e+00   7.2278301e-03
  1.5398993e-01   2.9497629e-04
  1.2993420e+00   6.9866452e-05
 -2.0756817e+00   4.7989117e-05
 -3.8584226e-01   4.1978285e-03
  1.3903182e+00   3.6546024e-03
 -7.6782145e-02   1.6029463e-03
  2.2692500e-01   4.0679620e-04
 -1.2144899e+00   9.3865528e-04
 -4.3620888e-02   5.4697008e-03
  8.5682416e-01   1.2828937e-02
 -2.9561982e-01   7.7174051e-04
 -8.2807258e-02   1.2364286e-03
 -1.2071457e+00   2.3625887e-03
  1.2320001e-01   1.2689187e-03
  1.7055014e-01   8.0748070e-03
  3.5882699e-01   1.4525255e-04
  6.2738881e-02   1.2496375e-03
  5.5381417e-01   8.0973026e-04
  3.5966299e-02   4.3744125e-04
  1.4520341e-02   9.7682122e-03
  1.7113982e-01   2.1963762e-02
 -1.1917962e+00   9.2028891e-04
 -4.0519163e-02   1.0084992e-02
 -2.2915334e-01   7.5311107e-03
 -4.4988636e-02   1.6767539e-02
  9.5550470e-02   4.1307812e-03
 -2.1513399e-01   9.8068069e-04
 -5.8030043e-02   3.0827881e-03
  3.8363308e-02   7.2509921e-03
 -4.6335497e-01   1.6687509e-04
  8.2282752e-02   3.0802456e-03
  1.6885819e-01   4.1911121e-02
 -2.4198402e-01   5.7562487e-03
 -1.6923239e-02   2.0826001e-02
 -4.5444094e-02   3.0681931e-03
  4.4795562e-02   1.6361265e-02
 -4.8120242e-02   1.1683215e-02
 -3.9097988e-03   2.5594439e-02
 -8.2832379e-03   2.5508633e-02
 -7.6303462e-04   7.9734134e-04
  3.0860028e-01   4.4254814e-03
  7.1659155e-02   3.0085605e-02
  8.7313935e-02   5.1535601e-03
 -1.4171711e-01   1.7269636e-02
 -3.0010710e-02   2.2823458e-04
 -1.0374150e-01   1.6874086e-02
 -7.0417666e-01   2.1997672e-03
  1.4023346e-01   7.6935173e-04
 -3.2007363e-01   2.9140692e-03
  2.8304058e-01   3.1257556e-03
 -2.5549126e-01   8.2697254e-03
  2.9197831e-02   4.4257203e-03
 -8.6660914e-02   1.2979195e-02
 -9.6876040e-02   1.2906836e-02
  1.7899780e-02   9.6431030e-03
  6.5421999e-02   3.7321104e-03
  3.6777854e-02   2.6237855e-03
 -1.6719006e-02   1.2381663e-02
 -1.3895693e-01   2.4421373e-02
 -4.2125946e-05   1.0010129e-02
 -1.0502809e-01   1.6740343e-03
  3.6864799e-01   9.3572267e-04
 -5.6513306e-03   2.1109313e-03
  5.4480821e-02   1.6095350e-02
 -1.2064359e-02   1.3569847e-02
 -3.3703651e-02   3.3604403e-03
 -3.3979915e-02   2.0154982e-03
  1.6113794e-01   1.1696028e-02
  1.3913978e-02   4.1943900e-03
  7.4674226e-02   7.7849762e-03
  1.0306289e-02   2.7823221e-04
  2.2380237e-02   6.6625574e-03
  4.1388445e-02   1.1606047e-02
  1.1632334e-01   3.4677011e-03
  7.4950881e-02   9.7476980e-03
 -2.5579748e-03   9.2429025e-03
  4.8619905e-03   1.2084580e-03
  7.2144806e-02   1.5995963e-02
  6.2845230e-02   1.6966321e-02
  7.2998129e-02   7.7661132e-03
 -4.4430662e-03   2.0158794e-02
  1.1807827e-02   8.0816001e-03
 -5.7518841e-03   1.0955104e-02
 -9.4357550e-02   4.7460091e-03
 -6.3524731e-02   1.7766250e-02
  8.7988490e-01   3.8411771e-03
 -8.0385141e-02   7.0260471e-04
  6.1155673e-02   3.3690617e-03
  5.6176908e-02   3.1988630e-03
 -3.2223001e-01   7.4677613e-05
 -8.3517358e-02   3.0937141e-03
 -1.9813067e-01   8.6416453e-03
  2.8793642e-02   1.2941872e-03
 -1.9446976e-02   1.1585264e-02
  2.2304903e-01   1.9852301e-02
  1.5708772e-02   5.3924434e-03
 -1.0810374e-01   1.0459354e-03
 -4.0116441e-02   2.3605933e-03
  5.8676503e-03   4.1473025e-04
  7.1416390e-03   1.1646426e-02
  2.8231144e-01   2.0834652e-03
  1.8906957e-01   3.3372545e-03
 -1.3215844e-02   1.2412213e-02
  3.4483857e-02   1.0706951e-02
  1.4268854e-01   1.6393896e-02
 -3.5622295e-02   2.1207898e-03
  3.0612122e-02   1.6015882e-02
 -1.3597320e-01   1.3742962e-02
  4.8321909e-03   1.3647021e-02
  5.5438526e-02   3.8635361e-03
  1.2210638e-03   2.0863104e-03
  2.4409562e-01   7.4749351e-03
 -7.5129434e-02   1.7012020e-03
  1.5480529e-02   2.7064905e-03
  7.8956550e-03   2.5793025e-03
  1.2133967e-01   2.1741798e-03
 -2.2647534e-01   5.3991163e-03
  1.0233451e-01   5.5155456e-03
  1.0362531e-02   1.6406901e-02
 -5.3232569e-02   7.1489150e-03
  1.3172363e-01   3.5457492e-03
  2.4329685e-02   2.0145182e-03
 -5.8596499e-02   6.6787621e-04
 -2.6445463e-01   1.9713383e-02
 -1.8349260e-01   1.2259761e-02
 -3.1197429e-01   6.8811672e-03
 -1.2044923e-01   7.5507299e-03
  3.7940741e-01   1.4368343e-03
 -3.1429118e-01   3.9406817e-02
  1.0130122e-01   9.6062962e-03
 -1.2332313e-02   3.6351462e-03
 -2.9885706e-02   3.1421112e-03
 -6.1745171e-02   8.7304395e-03
 -2.1029925e-02   3.2370821e-02
 -1.0889797e-01   3.6941550e-03
 -1.1699749e-02   6.7519292e-04
  3.3622712e-02   2.7040312e-02
  5.7463195e-02   1.2066517e-02
 -7.6153293e-02   8.6240278e-04
 -2.0270562e-01   4.9468610e-03
  1.7601579e-01   2.0224346e-02
 -5.5224452e-02   9.8838471e-03
  9.0421967e-02   1.2109774e-02
 -7.7009261e-02   1.8352300e-02
  6.2548369e-02   1.4631243e-02
 -1.0295130e-01   1.7383418e-03
  2.3668649e+00   1.5476655e-04
  1.2137284e-01   3.2922719e-03
 -2.1991813e-01   1.2952802e-02
  6.6619761e-02   1.0017562e-02
  7.8960314e-02   2.5809001e-02
 -2.2858357e-01   2.4485383e-03
 -5.0357455e-01   2.1501607e-03
  1.9305024e-02   5.6756516e-03
 -2.7552602e-01   1.3296922e-03
 -2.4770025e-02   1.1339481e-02
 -7.5285152e-02   8.1730150e-03
  1.4326756e-01   2.3245164e-03
  2.5198052e-02   1.3106371e-02
 -3.5860518e-01   3.3395112e-02
 -9.5718034e-02   7.7103218e-03
  5.9120897e-02   1.2302179e-02
  4.8728804e-03   4.5816037e-03
  6.5367535e-02   9.0999377e-04
  1.1386651e-01   4.9230568e-03
  6.0645826e-02   3.9664302e-02
  2.8929303e-03   1.3179107e-02
  3.0191271e-02   1.2799977e-02
 -1.3534517e-02   1.7069863e-02
 -3.6430266e-03   1.5560443e-03
 -9.7534224e-02   1.5859619e-02
 -3.1326264e-01   2.4116594e-04
  7.2316430e-04   3.5089871e-03
 -5.8984125e-01   6.0484005e-04
  6.3751549e-02   1.1106875e-02
 -5.7488419e-03   1.9286497e-02
 -1.2927943e-01   1.4778752e-02
 -1.2283030e-01   1.0916887e-02
  4.8186067e-02   8.9931721e-03
  8.5474335e-04   1.2224490e-02
 -1.4519757e-02   1.0043385e-02
 -4.0365726e-02   1.3594730e-02
 -1.9862210e-02   1.5595902e-02
 -2.1805435e-01   2.1829249e-03
 -2.9237828e-01   3.8601169e-03
 -5.8172364e-02   1.3849023e-02
  7.2704162e-03   3.7572721e-03
  1.1886232e-02   6.7570368e-03
  9.0155624e-02   1.9565491e-02
  1.5023922e-03   3.1050909e-03
 -3.7351869e-02   4.3719457e-03
 -1.5517788e-01   6.7573868e-02
  1.2983604e-01   2.6319039e-03
 -2.0146368e-01   8.4565338e-03
  8.8106416e-02   1.8165822e-03
  7.1781345e-02   1.4118803e-02
 -8.7848075e-02   1.3590268e-02
 -1.9547299e-03   2.5086103e-02
 -8.8635474e-02   3.5968071e-03
 -6.5680718e-01   4.7345060e-05
 -9.0848833e-01   4.1434317e-04
 -6.6153204e-01   2.0054793e-05
 -2.5323713e-01   1.5098095e-03
 -6.7567778e-01   1.2538929e-03
 -3.4237035e-02   1.0637771e-02
  3.0027491e-01   1.0331166e-03
  1.1694505e-01   4.2162864e-03
  4.1684419e-02   3.0328252e-03
 -1.8024164e-01   1.0570991e-03
  3.0059734e-01   3.1180360e-04
 -2.2362307e-01   1.6487143e-03
 -6.5409857e-01   3.3731994e-06
 -2.5508705e-01   5.2026152e-03
 -1.0888820e-01   8.4202306e-04
 -1.4290433e+00   1.0672765e-03
 -9.9738127e-01   2.7421821e-04
  7.1757220e-02   2.5077280e-02
 -8.6389512e-02   1.6508389e-03
 -1.2156055e+00   1.2702787e-03
  1.4512399e-01   3.6087949e-04
 -4.1564614e-02   2.1091243e-03
 -3.9548413e-03   7.8440784e-03
  5.7474263e-02   7.6167770e-03