 -1.7293613e+00   9.8494738e-02
 -2.6800442e+00   9.1901816e-02
 -1.4216306e+00   6.0012989e-02
  2.0036564e+00   5.6244303e-02
 -9.7499835e-01   8.7435097e-02
 -7.0908386e-01   4.6797574e-02
 -3.1796050e-01   8.1782840e-02
  1.8324085e+00   9.6558340e-02
 -1.1271037e+00   9.9587761e-02
  1.4734983e+00   9.9511631e-02
  2.9555302e+00   4.2434145e-02
 -8.0296093e-01   4.1712314e-02
  4.2975420e-01   7.6605178e-02
 -6.6547638e-01   9.3289889e-02
 -1.4349417e-01   9.4688639e-02
 -6.4872489e+00   8.6241975e-02
  3.9505558e+00   5.9138231e-02
 -4.6346650e-01   8.3595738e-02
  2.0160956e+00   6.3209429e-02
  1.7937516e+00   7.1327463e-02
 -3.2480416e+00   7.4116819e-02
  5.4786462e-01   7.8034021e-02
 -1.6419243e+00   9.4775230e-02
  1.0716785e+00   5.0320409e-02
 -1.1745121e+00   5.9000943e-02
  1.5552765e+00   8.9269534e-02
  2.0848374e+00   9.3461402e-02
 -1.8104383e+00   8.2782984e-02
 -3.2828543e+00   9.5651917e-02
  5.1276755e-01   2.8945444e-02
  1.5329780e-01   9.3363158e-02
 -2.2806358e+00   8.1685603e-02
  1.3989648e-01   6.9962695e-02
 -2.7085355e-01   8.0847412e-02
 -2.0647864e+00   8.3147034e-02
  1.6260979e-01   5.8179129e-02
 -1.9405809e-01   9.1588207e-02
 -2.3120590e-01   8.2131885e-02
  1.7365078e+00   7.7050306e-02
 -1.0503099e+00   6.4871371e-02
 -2.3086836e+00   7.8768454e-02
  7.3574597e-01   9.7280331e-02
 -7.8667104e-01   8.0542840e-02
 -8.0199760e-01   9.2947349e-02
 -3.6222675e-01   6.8671010e-02
  2.4948220e+00   8.0322608e-02
  9.2823434e-01   8.8485301e-02
 -4.3720541e+00   7.6186053e-02
 -7.8635193e-02   6.5433376e-02
 -3.9512497e-01   9.3018383e-02
 -6.8765271e-01   8.9498043e-02
 -7.6955058e-02   8.7055184e-02
  3.2182856e+00   7.5698152e-02
  7.2458351e-01   8.3542116e-02
  2.1271687e+00   5.5933151e-02
 -1.1514374e+00   9.8321736e-02
 -1.1404101e+00   5.8497384e-02
  1.0129205e+00   8.0646738e-02
  2.0878515e+00   7.4680805e-02
 -3.4100220e+00   9.0802498e-02
 -7.5319660e-01   8.0957092e-02
  7.2237307e-01   6.1546028e-02
  2.9325228e+00   8.3970651e-02
  3.9903215e-01   5.5486254e-02
 -3.2051764e+00   9.9275738e-02
  2.5136700e+00   4.4887211e-02
  8.3598721e-01   9.9585041e-02
  2.2322888e+00   9.9471271e-02
 -1.7887324e+00   5.0361991e-02
 -8.3680040e-01   7.9503931e-02
  1.7796960e+00   5.6213666e-02
 -1.9167992e+00   9.2529856e-02
 -5.1960349e-01   9.7030930e-02
  3.4228152e-01   5.9659924e-02
 -1.4147817e+00   9.7369947e-02
  4.2011082e-01   8.1207074e-02
  1.4141890e+00   7.6730050e-02
  7.8095943e-01   3.8826134e-02
  2.9621199e-01   8.4356546e-02
  2.0193224e+00   9.8354727e-02
 -3.0613396e+00   4.2263635e-02
  2.3264179e+00   6.4858891e-02
 -7.9458311e-02   7.1146563e-02
  5.6419343e-01   8.4952265e-02
  6.9002926e-01   4.0335491e-02
  2.9445155e+00   8.8472068e-02
  4.4548597e+00   9.4161749e-02
 -1.0069113e+00   3.5559680e-02
  4.4701118e+00   9.5023647e-02
 -4.5209533e-01   8.8856891e-02
  1.5816747e+00   6.8375453e-02
  2.7132816e+00   8.7405369e-02
 -6.4342707e-01   7.2958909e-02
 -1.5064282e+00   7.8303888e-02
 -4.3735948e-01   8.1273004e-02
  1.1137651e+00   9.1208421e-02
 -2.3979390e-01   7.3871367e-02
  3.5568666e+00   5.8091212e-02
  1.7309141e+00   6.2544927e-02
  1.5274717e+00   5.1421709e-02
  3.5503933e+00   9.2844568e-02
 -2.6469946e+00   9.9025473e-02
  3.0420420e+00   5.9405684e-02
  2.0690200e+00   9.0501465e-02
 -1.9980241e+00   7.7695206e-02
  2.0550647e+00   5.5676956e-02
 -6.0801405e-01   9.9098273e-02
 -3.2032411e+00   6.9271162e-02
 -7.3903096e-01   9.0512961e-02
 -1.4922507e+00   8.6689703e-02
  8.9927053e-01   8.0383837e-02
  6.9596416e-01   3.3591993e-02
 -5.1337284e-01   6.3871279e-02
  2.9335692e+00   8.2656302e-02
  1.5495446e+00   7.6239072e-02
 -7.5303650e-01   6.3035488e-02
  2.1123719e-01   6.4408891e-02
  1.6254625e+00   5.1613174e-02
 -1.4137769e-01   6.3379310e-02
 -1.2091101e+00   2.7513068e-02
  1.3507386e+00   9.4814852e-02
 -3.7997313e+00   7.7210091e-02
 -3.8148251e+00   8.4811710e-02
  2.4677746e+00   6.7775071e-02
  6.7453212e-01   3.0194294e-02
 -3.4187305e+00   7.5058572e-02
  2.1972623e+00   4.6406526e-02
  3.4774861e+00   7.9049766e-02
  1.3640960e+00   5.0991792e-02
  1.4348081e+00   8.7818384e-02
  6.7541277e-01   6.2571630e-02
 -9.9495643e-01   9.0220004e-02
 -8.1008470e-01   7.4750856e-02
 -3.0190220e+00   8.1773430e-02
  2.1204958e+00   9.5214859e-02
  2.3906093e+00   9.4780393e-02
 -6.3703495e-01   6.6842154e-02
  7.0327443e-01   3.3293098e-02
 -1.6557819e-01   9.4423771e-02
 -1.6510791e+00   7.5781040e-02
 -5.3401643e-01   7.5201951e-02
  3.3859011e-02   8.6499766e-02
  6.5608501e-01   3.5910990e-02
  5.4502249e-01   7.0078865e-02
  1.2141103e+00   8.3515219e-02
  5.8521819e-01   9.3190961e-02
  2.1872588e-01   8.7112114e-02
  1.0059973e+00   6.7708664e-02
  1.7281145e+00   9.0291426e-02
 -1.3594232e-01   8.0754027e-02
  9.9986422e-01   5.7691716e-02
  1.2051826e+00   4.4388466e-02
 -2.3293645e+00   6.4411975e-02
 -3.0821452e-02   7.2749935e-02
  7.5790415e+00   7.1809746e-02
  3.8590949e+00   7.6139845e-02
  7.5118691e-01   9.0723738e-02
 -1.0521280e+00   5.3894535e-02
  1.2068636e-01   6.3886143e-02
 -2.4454950e-01   7.3690012e-02
  5.6918189e-02   9.3267485e-02
 -1.6596296e+00   7.0596606e-02
  1.9106731e+00   9.7051762e-02
 -5.4460454e-01   9.7692356e-02
  6.0651660e-01   9.5567971e-02
  1.6342922e+00   7.9342328e-02
  2.1742041e+00   6.9806896e-02
 -2.0913436e+00   6.5902971e-02
  3.0356071e+00   9.0925574e-02
  8.1071466e-01   6.9235004e-02
 -2.9986045e-01   8.6629495e-02
 -2.7895639e-02   8.8647224e-02
 -3.4950097e+00   8.1186548e-02
  8.3088821e-01   6.0098294e-02
 -3.6177113e+00   6.6186212e-02
  7.4435987e-02   9.5030285e-02
  1.5659271e+00   7.0865564e-02
  2.7198062e+00   9.3136981e-02
  8.9515500e-02   7.1631260e-02
 -1.3575782e+00   8.5708357e-02
  1.0013825e+00   8.0940187e-02
  4.4600868e+00   8.4382400e-02
 -1.6444163e+00   9.1114499e-02
  2.1638703e+00   7.2334111e-02
 -2.1578689e+00   3.8971480e-02
  1.5521212e+00   6.7758873e-02
  1.0840043e+00   4.7529396e-02
  1.4523495e+00   9.8638453e-02
 -6.1949211e-01   5.7214420e-02
  3.1760359e+00   8.8693723e-02
 -7.9290366e-01   7.2387755e-02
 -1.6668380e+00   4.8466161e-02
 -5.8527869e-01   7.8451738e-02
 -7.4644476e-01   7.5026743e-02
  1.9283848e+00   6.6109315e-02
  2.5894444e+00   9.9010944e-02
 -1.1916300e+00   7.4984811e-02
 -1.4084055e+00   6.3058332e-02
 -9.7484386e-01   6.6823140e-02
 -7.9920292e-01   7.3092505e-02
  1.2293252e-01   6.3201942e-02
 -1.6037669e+00   7.5350158e-02
  6.0474277e-01   7.9592437e-02
  7.9164660e-01   8.8856645e-02
 -1.5646116e+00   7.1332574e-02
  3.5819845e+00   9.2006296e-02
 -2.7165990e+00   8.9883506e-02
  7.9705107e-01   9.5319338e-02
  1.5118967e-01   9.2446014e-02
 -9.1262788e-01   9.3291059e-02
  5.8070660e-01   5.3489439e-02
 -8.3581084e-01   8.3388440e-02
 -2.4287634e+00   3.8408045e-02
 -1.4108610e+00   7.6417543e-02
 -1.8938613e-01   3.0337095e-02
 -5.6389999e-01   4.2216912e-02
  1.9555800e+00   7.6731861e-02
 -4.7154811e-01   5.3714138e-02
  2.0146344e+00   9.4084226e-02
 -2.3128173e+00   9.7936511e-02
 -2.1192267e+00   5.1909253e-02
  2.4923901e-01   8.7998271e-02
  5.4123795e-01   9.4831705e-02
 -3.2216711e+00   9.1326520e-02
 -4.5734801e+00   7.0025615e-02
  1.6904621e-01   9.8757386e-02
  8.3926797e-01   5.5801466e-02
 -1.7217610e+00   9.1200307e-02
 -1.0222878e+00   9.2568867e-02
  1.3304071e+00   8.2664549e-02
 -2.1061120e+00   9.2182010e-02
 -2.3381150e+00   8.5125938e-02
 -1.3919187e+00   8.7035932e-02
 -1.7251757e-01   9.5928811e-02
 -1.0641456e+00   9.8521657e-02
 -1.8644990e-01   4.3721076e-02
  2.5677114e+00   4.7062557e-02
 -1.6981500e+00   4.8730213e-02
  3.4239597e+00   8.0529585e-02
  2.8274677e+00   7.8046337e-02
  3.7092021e+00   6.4603798e-02
  3.2018056e+00   5.2070409e-02
 -1.4703270e+00   4.9140345e-02
 -1.4300536e+00   7.5471953e-02
 -1.4006841e+00   4.3311507e-02
  1.5901105e+00   5.9571214e-02
  1.7087628e+00   6.8013638e-02
 -3.3982382e+00   6.7477643e-02
  1.2729770e+00   4.7194667e-02
 -9.7192901e-01   8.2995899e-02
  2.2058108e+00   4.9201231e-02
  4.3796296e+00   3.6606215e-02
  6.8492049e-01   8.4679008e-02
 -2.8354304e+00   4.6377897e-02
  3.0933542e+00   9.3749046e-02
  9.8157048e-02   6.6247433e-02
  2.1264853e+00   7.4548587e-02
 -4.2759790e+00   9.9021822e-02
  3.4156680e-01   7.6136857e-02
  2.9864247e+00   8.2251854e-02
 -1.6439393e-01   4.7332801e-02
  3.7576261e+00   9.7371951e-02
  1.0354879e+00   7.5725406e-02
  2.5949202e+00   5.9399959e-02
 -4.3483877e-01   7.8212611e-02
  3.2130170e-01   4.4727441e-02
 -7.4357378e-01   7.0559658e-02
 -1.6565387e-01   8.2749762e-02
 -4.9661901e-02   8.0676459e-02
  9.3373764e-01   8.2256854e-02
  1.2705415e+00   6.9484152e-02
 -5.0066915e+00   4.0883746e-02
  4.6418228e+00   8.1135452e-02
  5.8543976e-02   6.1642185e-02
  1.5597111e-01   5.7215702e-02
  2.1279294e+00   8.1873260e-02
  2.5006475e+00   9.3285300e-02
  1.3407792e+00   3.6915332e-02
  9.0110987e-02   5.8657482e-02
  4.7698477e-01   5.9818923e-02
 -2.7318842e+00   6.5537140e-02
  2.4706025e+00   8.5707657e-02
  9.8392051e-01   7.3166080e-02
 -1.7389859e-01   7.5324617e-02
  1.3356959e+00   3.8504161e-02
 -2.4162772e+00   8.1921354e-02
  1.6719916e-01   5.1660225e-02
 -3.6042528e+00   9.9787824e-02
 -1.6880680e+00   7.7398211e-02
  1.0974775e-01   7.1088910e-02
  1.3084499e+00   7.6829359e-02
 -1.7298214e+00   6.1780594e-02
 -2.5881659e-02   8.4111892e-02
  6.9090402e-01   8.7953247e-02
  7.5329298e-01   7.8928113e-02
  1.5883033e+00   7.6923534e-02
  5.1253861e-01   6.7263097e-02
 -3.9979892e+00   9.0207063e-02
  1.3738419e+00   9.5905520e-02
  1.3697745e+00   9.5701456e-02
 -2.2252188e+00   8.7623343e-02
 -3.5505366e+00   4.9999774e-02
  7.1729772e-02   5.7638705e-02
  1.1972758e+00   9.1103114e-02
  3.3662441e-01   5.1577747e-02
  2.2353961e+00   8.2224026e-02
  2.6409537e-02   6.9089875e-02
  4.2285603e-01   8.4601387e-02
 -3.5515182e-02   7.2328813e-02
  2.3342123e+00   5.1958289e-02
 -4.9105433e-01   5.6278102e-02
  2.0608652e+00   9.7362615e-02
  2.5301342e+00   8.2040653e-02
  3.3606374e-01   8.1846423e-02
 -4.8213542e-01   9.1467008e-02
  2.1499267e+00   6.3106909e-02
  1.8851902e-01   9.1777273e-02
  2.0674806e+00   6.2537216e-02
  2.0578821e+00   8.4078088e-02
 -1.0183017e+00   9.3557656e-02
  2.2983596e+00   9.5690988e-02
 -2.1290863e+00   7.6722614e-02
 -3.0148134e+00   7.3622033e-02
 -1.9149710e+00   8.0929488e-02
 -4.7287485e-01   8.2918823e-02
  1.5846604e+00   5.8829203e-02
  1.3346013e-01   7.5866036e-02
  2.3877172e-01   9.8876908e-02
 -1.7782347e+00   8.3756141e-02
 -2.8381703e+00   9.3325540e-02
 -4.6561024e-01   9.0958096e-02
  1.3011440e-02   7.9718351e-02
  6.0844356e-01   6.1300684e-02
 -7.8616232e-01   6.6839240e-02
 -1.0850990e+00   5.3023294e-02
  1.7379160e+00   7.3687077e-02
 -1.7271003e+00   6.8584368e-02
  1.3553944e+00   3.2233994e-02
 -2.9680192e+00   5.2116763e-02
 -3.0581215e-01   7.4562490e-02
  3.0471647e+00   4.5007437e-02
 -7.3316002e-01   6.7838855e-02
 -1.4430734e+00   7.7828184e-02
 -1.3218961e+00   9.2488132e-02
 -2.0586336e+00   9.3004890e-02
  1.8810021e+00   6.5550826e-02
 -4.4576716e+00   8.3826095e-02
  7.1867663e-01   3.8088236e-02
 -4.3883875e-01   3.8773604e-02
 -1.8725288e+00   4.5026928e-02
  3.0892212e+00   7.2895892e-02
 -5.2126795e-01   4.7385242e-02
 -2.1483247e+00   6.6296317e-02
  2.3461001e+00   6.8081886e-02
 -4.6518407e+00   9.6003205e-02
  5.5640525e-01   6.3780956e-02
 -2.7530737e+00   8.2835995e-02
 -7.4949455e-01   8.0135830e-02
  3.5502505e+00   7.0537329e-02
  2.4586606e+00   7.4981600e-02
 -3.0228851e+00   6.6003181e-02
 -1.1838957e-01   9.5278777e-02
  1.7327445e+00   3.8486663e-02
  4.6648675e-01   6.2289000e-02
 -2.4617511e-01   5.7939049e-02
 -2.1483662e+00   6.4708695e-02
  6.8415415e-01   7.9623766e-02
 -3.5982430e-01   7.3801272e-02
  4.4316483e-01   6.4225689e-02
 -2.8540535e+00   7.8620806e-02
  3.0335705e+00   7.9635225e-02
  2.6657681e+00   3.1200854e-02
  2.9003279e+00   8.3131336e-02
 -3.2046599e+00   5.8790758e-02
 -1.7796711e+00   8.0726989e-02
 -1.6327748e+00   7.4858643e-02
  1.5981601e+00   8.4235705e-02
 -1.1649410e+00   3.2978367e-02
 -5.0010700e+00   7.4023768e-02
 -1.1537126e+00   7.3093325e-02
 -2.1357338e+00   9.3749523e-02
 -2.9476914e-01   5.2928042e-02
  2.7489824e+00   8.4905453e-02
 -7.1700424e-02   4.8488777e-02
 -1.5697429e+00   8.3037168e-02
 -6.5448409e-01   7.6682843e-02
  2.3562453e+00   5.1467117e-02
 -1.5482687e+00   7.8657806e-02
 -2.2562232e+00   8.0184303e-02
  1.1806673e-01   6.3636497e-02
  5.1430738e-01   4.4834923e-02
 -2.0929205e+00   7.0634700e-02
  3.2177396e+00   5.4280341e-02
  1.7517965e+00   7.6221339e-02
 -4.0122041e-01   4.1291531e-02
  6.3131398e-01   8.3800226e-02
  2.3664591e+00   9.4648033e-02
  6.9975197e-01   6.0800910e-02
 -1.8460851e+00   9.9597320e-02
  1.8544208e+00   4.8674669e-02
  8.0023396e-01   8.6045809e-02
 -1.7917172e+00   7.6054096e-02
 -1.1303692e+00   5.8999132e-02
  2.4161770e+00   9.4728962e-02
 -5.1207919e+00   9.3982846e-02
 -1.8053063e+00   3.3704996e-02
  8.1089848e-01   4.7611263e-02
  2.2659049e+00   9.8841019e-02
  3.0148478e+00   9.1672532e-02
  2.3682218e+00   8.0570228e-02
 -4.3726869e+00   8.7311491e-02
  7.4729073e-01   9.9090517e-02
 -3.1550047e+00   6.4708017e-02
  1.1102276e+00   9.3273707e-02
 -3.2756445e-01   9.6409708e-02
  9.1003740e-01   4.4600930e-02
 -2.5802946e-02   6.7357346e-02
  4.3794832e-01   6.0942821e-02
  7.5463229e-01   8.8497229e-02
  8.6129129e-02   9.9760570e-02
 -2.2684052e+00   8.5166410e-02
  1.8726146e+00   5.7989776e-02
  6.4305675e-01   9.3440704e-02
 -1.1429480e+00   7.2430320e-02
  2.0632362e+00   3.7864942e-02
 -2.4685147e+00   7.5660311e-02
 -2.9315466e-02   6.2125009e-02
  6.1784548e-01   9.1070153e-02
 -1.8201116e+00   5.3392772e-02
  5.4806411e-01   6.3582987e-02
 -1.2995836e+00   9.5222987e-02
 -2.3817265e-01   3.9030593e-02
  4.8467028e-01   6.0285717e-02
  4.9474878e+00   7.6341286e-02
  2.2216499e+00   9.6078672e-02
 -4.9415278e+00   7.1524628e-02
  4.2680383e-01   5.6012947e-02
 -3.2052302e+00   7.5759955e-02
 -1.3220600e+00   3.9556634e-02
  1.4458836e+00   6.4784490e-02
 -2.2176621e+00   9.6103497e-02
 -5.1597123e+00   7.7779420e-02
 -5.9419310e-01   8.0261692e-02
 -2.9901536e+00   5.8741201e-02
 -5.8070902e-02   7.0153736e-02
  1.8911963e+00   8.5061505e-02
 -1.7108835e+00   7.3119864e-02
 -2.4703832e+00   4.5356296e-02
  1.2699647e+00   8.8525616e-02
 -2.3919620e-01   6.3284442e-02
 -1.8222954e+00   8.0590844e-02
  1.7741143e+00   7.8832828e-02
  7.3885769e-02   6.6670537e-02
 -8.2046217e-01   7.2730742e-02
 -4.6591851e-01   9.3049221e-02
 -3.3043051e+00   8.4026180e-02
 -2.8413441e+00   5.2025020e-02
 -4.6823037e-01   8.8290274e-02
 -4.1535863e-01   7.8976505e-02
  4.9250336e+00   9.2808157e-02
 -9.6411395e-01   6.9445774e-02
 -2.2425973e-01   7.9742119e-02
  3.1968391e+00   6.0020540e-02
 -1.5721868e+00   7.2951190e-02
  1.6557290e-01   2.4125742e-02
 -8.2455230e-01   8.4559843e-02
  1.8498658e+00   9.6368834e-02
  1.9762194e+00   2.9876070e-02
 -4.1747956e+00   7.8180738e-02
 -2.0219140e+00   7.2632387e-02
  7.9274631e-01   6.4636916e-02
 -3.0092388e-01   6.4412206e-02
  2.8785548e+00   9.4933912e-02
  1.0218806e+00   7.6758415e-02
 -2.1301043e+00   3.6700655e-02
  2.8524997e+00   9.9244706e-02
 -2.2719789e+00   6.8106696e-02
 -2.1468182e+00   9.1622651e-02
 -9.6924800e-01   6.5789789e-02
 -6.6839373e-01   7.4084699e-02
 -5.9772742e-01   4.8034251e-02
  2.7907639e+00   9.0462282e-02
  4.7512941e+00   9.2131503e-02
  1.6830903e+00   8.0496773e-02
  3.9205700e-01   7.8692913e-02
 -2.5877707e+00   8.5976943e-02
  2.2982914e+00   8.3846197e-02
  1.6726504e-01   8.3418876e-02
 -1.0838668e+00   7.5441100e-02
 -1.6032794e+00   8.0702603e-02
 -1.7985990e+00   9.7765893e-02
 -1.5226243e-01   7.3207013e-02
 -5.9911191e-01   9.8573521e-02
 -4.4056958e-01   9.6972279e-02
  7.6334423e-01   3.8928811e-02
 -3.7560711e+00   3.6699641e-02
  7.7246275e+00   9.4702415e-02
 -1.6783357e+00   6.5948494e-02
  3.1018403e-01   8.0533788e-02
  9.2950177e-01   8.2836650e-02
 -1.6848894e+00   5.4196469e-02
 -7.2402582e-02   6.1400939e-02
  6.4713293e-01   4.1569401e-02
 -1.0589319e+00   8.8826202e-02
  2.6136324e-01   6.4012535e-02
 -1.9515699e-01   5.9880510e-02
 -3.1049359e+00   9.2142716e-02
  2.7858189e-01   7.5612232e-02
 -2.8706474e-02   8.7548316e-02
 -2.8143486e-01   5.0204132e-02
 -2.5530951e+00   3.6801953e-02
 -9.1524130e-01   9.8327845e-02
  5.6149693e+00   7.2296143e-02
  2.4274678e+00   7.0895538e-02
 -1.3652097e+00   7.8627817e-02
  4.5110878e-01   3.9436817e-02
 -2.0372257e+00   9.1271095e-02
  4.3431582e+00   9.9734366e-02
  1.0409533e+00   4.0730547e-02
  5.1626392e-02   5.5793606e-02
 -8.0953729e-01   8.0514282e-02
 -2.6205423e+00   9.4129331e-02
 -7.3753291e-01   8.2582310e-02
 -2.4464615e-01   7.8684025e-02
 -1.1661801e+00   5.9291828e-02
  1.0865531e+00   5.5166375e-02
  7.1453649e-01   9.8443635e-02
  3.9015663e-01   9.5158435e-02
  2.8663032e+00   8.2369618e-02
  1.6930665e+00   6.8530016e-02
 -3.9518573e+00   6.4867340e-02
 -7.8170508e-01   8.4170334e-02
 -3.3960671e+00   7.1205407e-02
  2.0872910e+00   4.6726231e-02
  8.9101565e-01   9.8484583e-02
  1.1713295e+00   6.3880675e-02
  1.1246142e+00   6.8258561e-02
 -4.5032849e+00   5.6604315e-02
 -1.1900367e+00   6.4659685e-02
 -1.6940972e+00   7.7166185e-02
 -1.0673554e+00   6.9407620e-02
 -5.9312320e-01   1.7890496e-02
 -2.3821299e+00   7.7497862e-02
  2.5927422e+00   4.3404296e-02
 -2.3340161e+00   4.6251021e-02
 -3.0442376e+00   9.2953466e-02
 -1.0784056e+00   6.3225903e-02
  5.4999286e-01   3.3327281e-02
  2.7138293e+00   6.4986691e-02
  8.1250048e-01   5.3500682e-02
  6.7419195e-01   9.7466387e-02
  1.1325935e+00   9.9619530e-02
 -3.3863108e+00   7.6046444e-02
  4.5226946e+00   5.2204806e-02
  3.2766664e+00   3.7168171e-02
 -1.2352749e+00   6.4549334e-02
  1.3300370e+00   4.0790394e-02
 -1.1432302e-01   8.9849703e-02
 -7.6623356e-01   4.3815952e-02
 -3.0681767e+00   7.9582341e-02
  1.3003401e+00   7.6524444e-02
 -2.6237676e+00   4.5949627e-02
 -1.3517984e+00   3.9321769e-02
  8.2104063e-01   9.2886657e-02
  2.3491681e+00   8.8648461e-02
  7.2467971e-01   6.2829703e-02
 -4.0105362e+00   6.0017303e-02
 -1.1355267e+00   6.0897022e-02
  1.1374912e+00   9.4387464e-02
 -6.1280549e-01   5.9564594e-02
  1.0228503e+00   8.8414229e-02
  1.9497039e+00   7.3787607e-02
  8.3443239e-02   3.0148404e-02
  7.4274051e-01   2.9601956e-02
 -6.6472846e-01   2.1054387e-02
 -9.4415712e-01   5.5243008e-02
  1.3340153e+00   4.2888626e-02
 -4.7394791e-01   2.1912750e-02
 -6.1084926e-01   2.6906166e-02
 -1.0866922e+00   3.7698302e-02
  9.7071379e-01   4.1177019e-02
 -1.7389476e+00   2.3801709e-02
 -4.3483666e-01   1.5495571e-02
 -4.6908811e-01   3.6091220e-02
  2.3586581e+00   3.2865241e-02
 -2.1633236e+00   7.8180224e-02
 -1.3570387e+00   4.6732910e-02
 -7.1124148e-01   4.9642205e-02
  2.0576010e+00   9.0291336e-02
 -3.7097378e+00   9.7208530e-02
  1.0409114e+00   5.0966986e-02
 -3.4607515e-01   5.9947215e-02
  1.6574512e+00   9.7175390e-02
  4.6715111e-01   7.2549775e-02
  1.1908687e+00   3.6786988e-02
 -6.3809484e-01   7.0826255e-02
 -8.8631935e-02   8.9103967e-02
 -2.1811733e-01   5.3844951e-02
 -1.0626013e+00   5.5054188e-02
  3.6749628e+00   4.8749838e-02
 -1.8172528e+00   5.7233661e-02
  2.9050434e+00   7.2017588e-02
 -2.4082792e+00   9.4710134e-02
  2.7711937e-01   5.9836455e-02
 -3.4028504e-02   6.2977172e-02
 -6.3965759e+00   6.5025605e-02
 -3.6839366e-01   8.1429198e-02
  9.4772989e-01   7.9851374e-02
 -2.1990602e+00   4.0537082e-02
 -3.4588549e-01   9.6031643e-02
 -2.2344573e+00   5.7701051e-02
  6.5295261e-01   8.6053222e-02
  1.9908782e+00   3.9765149e-02
  1.2205279e+00   4.6374470e-02
  1.3002639e+00   4.4884387e-02
 -4.8804313e-01   8.5876442e-02
 -3.5925758e+00   9.3242474e-02
  1.3700893e+00   8.4734045e-02
  5.3288708e+00   6.4926229e-02
 -2.3164165e+00   6.7139477e-02
 -1.1874193e+00   6.7944348e-02
 -2.1135557e-01   1.0000000e-01
  2.5705328e+00   3.7951108e-02
 -9.9709398e-01   5.5291660e-02
  1.1786039e+00   5.1004641e-02
  2.7716451e+00   4.0522568e-02
 -9.2423737e-01   6.0355179e-02
 -4.3521258e-01   6.8174183e-02
 -2.6630619e+00   6.9974050e-02
  3.4676322e-01   6.8458103e-02
  7.0933354e-01   5.6795470e-02
  1.9300160e+00   4.5209926e-02
 -1.0268983e+00   9.1121785e-02
  9.7629225e-01   9.0846330e-02
 -5.1109236e-01   3.8178004e-02
 -3.3137996e+00   9.5914431e-02
  1.7488115e+00   8.5094579e-02
  8.8738471e-01   5.6340210e-02
 -8.7315309e-01   3.9549593e-02
 -2.4198632e+00   8.0715679e-02
 -2.1568754e-01   6.2714338e-02
  1.4185308e-01   5.7690099e-02
  4.1191086e-01   6.1846681e-02
  1.1335949e+00   7.7212900e-02
 -5.6581540e+00   9.3265608e-02
  9.6105480e-01   7.9544045e-02
  4.5689541e-01   5.7910278e-02
  3.0225420e+00   7.3398896e-02
 -1.5427575e+00   7.8443371e-02
 -5.2847528e-01   4.9933109e-02
 -2.1331382e+00   5.1468879e-02
  1.0612701e+00   4.4502515e-02
 -2.9233565e+00   6.3656561e-02
  1.3378940e+00   9.1739506e-02
  1.0495996e+00   3.8487371e-02
 -1.6414019e+00   5.6226663e-02
 -3.8926184e+00   6.1329089e-02
  5.5289453e-01   9.2244565e-02
 -5.4954374e-01   5.9139963e-02
  9.9457920e-01   7.4304156e-02
  1.2061520e+00   4.0906958e-02
  3.2782100e-02   3.8615853e-02
 -1.4369875e+00   9.8115735e-02
  3.0248168e+00   5.1781546e-02
 -1.9302087e+00   3.8741197e-02
  3.2038027e-01   5.6295089e-02
 -2.8355071e-01   5.3840566e-02
  1.2071044e+00   8.4901616e-02
 -3.0246193e+00   9.7723901e-02
 -1.7795750e+00   4.0698752e-02
 -3.0676553e+00   9.5224559e-02
  2.5695641e-02   7.9291299e-02
 -1.6057934e-01   5.5650476e-02
 -7.5638151e-01   7.4236393e-02
 -1.2798343e+00   5.4310486e-02
  2.9347680e+00   8.9555234e-02
 -1.2268562e+00   6.2297065e-02
  4.7323290e-01   4.7809251e-02
  7.5828201e-01   5.7236202e-02
 -1.9478601e+00   7.8690752e-02
  1.9579734e+00   6.5368570e-02
 -1.5455292e+00   6.1365351e-02
  8.0023128e-01   7.3659725e-02
  7.3398310e-01   8.2189150e-02
 -3.0591968e-01   3.7217628e-02
 -4.4185701e-01   8.5038409e-02
  1.7931669e+00   9.2429355e-02
 -1.4837940e+00   8.8931434e-02
 -1.6503518e+00   7.6364331e-02
 -1.6347779e+00   8.8670336e-02
 -9.1121994e-02   4.9556125e-02
 -2.2269043e-01   7.1149066e-02
  8.7624723e-01   5.1167425e-02
 -1.9199826e+00   6.3485414e-02
 -2.8839736e+00   6.2915504e-02
 -1.9259162e-01   7.9129219e-02
  1.3503401e+00   1.0000000e-01
 -3.0134124e-01   2.8020868e-02
 -1.1327354e+00   8.8639766e-02
 -2.5611484e-01   7.4984863e-02
  2.0351210e+00   7.0913941e-02
 -1.8548430e+00   7.3589385e-02
  1.0023150e+00   6.6744998e-02
 -1.2008044e+00   5.8081932e-02
  1.6923902e+00   6.7395203e-02
 -1.5350648e+00   3.1967212e-02
 -1.0569412e+00   9.0287887e-02
 -1.3176410e+00   4.5859095e-02
  7.7370352e-01   3.5467755e-02
  2.0266590e+00   7.9060808e-02
  3.7944276e+00   5.5539161e-02
  6.5889931e-01   5.0158322e-02
 -2.9274936e+00   9.1633424e-02
 -1.1540881e+00   9.3422294e-02
 -6.2732971e-01   6.6656202e-02
  8.8666654e-01   6.1267175e-02
 -1.1049697e+00   8.7512225e-02
 -1.7535644e+00   4.9632318e-02
 -2.0893033e+00   7.4149765e-02
  2.1313961e+00   8.0379866e-02
  2.7686059e+00   5.7613023e-02
  9.1566205e-01   4.4038709e-02
 -2.7928417e+00   9.5566012e-02
  3.5422816e+00   5.7270620e-02
  1.7494579e-01   7.1839713e-02
 -2.9691188e+00   7.7276975e-02
 -4.1436799e-02   8.3337359e-02
 -2.6189184e+00   7.6478884e-02
 -9.4089366e-02   6.9485322e-02
 -2.2826369e-01   6.8671502e-02
  4.3309565e+00   8.3234519e-02
 -6.2739897e-01   8.9616261e-02
 -6.2873971e-01   7.1209148e-02
  1.6035066e+00   9.9030882e-02
 -5.4917803e+00   8.6507834e-02
 -7.9402190e-01   9.6750632e-02
 -2.1055629e+00   9.3006819e-02
  7.1015525e-01   5.5452112e-02
  1.8661643e+00   8.3782338e-02
 -1.5563134e+00   6.3407093e-02
 -2.9343877e+00   8.4849045e-02
  1.2744455e-01   6.5779336e-02
  7.2007245e-01   8.4550500e-02
 -2.0989625e+00   9.9765785e-02
 -3.9780672e+00   7.3167548e-02
  1.3021883e+00   6.5237366e-02
 -3.2566383e+00   7.7648580e-02
 -1.7176610e+00   8.8145994e-02
  1.7204721e+00   7.3592730e-02
 -1.2184448e+00   6.0239937e-02
  2.3701980e+00   9.5166750e-02
  6.2420285e-01   7.9205006e-02
  3.5653703e-03   8.1856184e-02
 -3.6155286e-01   8.3511077e-02
  3.8790122e-01   7.8350835e-02
  1.4717382e+00   3.9245129e-02
 -1.6976297e+00   6.1583992e-02
  5.3265828e-01   9.0475127e-02
 -4.8096057e-02   8.6428516e-02
 -1.7138041e+00   7.3910445e-02
  1.6567503e-01   5.0366696e-02
 -2.4230082e+00   8.4423535e-02
  1.6772763e+00   7.2870992e-02
 -3.1542885e-01   5.0069749e-02
  4.3808186e-01   7.4841760e-02
 -9.4666535e-01   6.4758584e-02
 -1.6460613e+00   8.5556760e-02
  6.0494345e-01   7.3469587e-02
  8.8730532e-01   8.7262109e-02
 -4.8663375e-01   2.6318772e-02
  2.0126269e+00   7.3621467e-02
  2.6444278e+00   5.4403946e-02
 -3.4136031e+00   9.8777108e-02
 -8.6469173e-02   5.5349611e-02
  3.0526216e+00   9.1376923e-02
 -4.2581334e+00   6.3215978e-02
  2.1940734e+00   5.8478322e-02
  1.0527438e+00   7.8223653e-02
 -3.8665655e-01   8.0806687e-02
  1.8992647e+00   7.5503841e-02
  2.7406156e+00   6.0927343e-02
 -9.7105849e-01   8.7667473e-02
  4.9609625e-01   5.0609376e-02
 -1.9199197e+00   7.8349657e-02
 -1.9000083e+00   7.6687448e-02
  2.2600675e+00   6.6964552e-02
 -1.2106915e-01   4.1398332e-02
 -1.8766536e-01   5.0109711e-02
 -1.3490261e-01   6.6470481e-02
  1.2613101e+00   8.4170707e-02
 -1.8516469e+00   8.7885320e-02
 -2.0474265e+00   9.3429044e-02
  9.9864340e-01   9.5769256e-02
  2.6613162e+00   7.3802121e-02
  3.0769355e+00   8.8445760e-02
  1.1303734e+00   4.9827542e-02
 -1.0963726e+00   7.5690225e-02
 -5.3705943e-01   7.0457235e-02
  5.3758138e-01   6.1859235e-02
 -6.7217410e-01   6.6189997e-02
  1.6162536e+00   8.7629944e-02
  1.1736572e+00   9.6911840e-02
  1.1118485e+00   8.8401683e-02
 -7.6332903e-01   8.3382629e-02
  1.9466308e-01   8.3012752e-02
  2.6399677e+00   9.3618110e-02
 -1.0553148e+00   4.9302585e-02
  4.2717326e-01   6.0850661e-02
 -3.0380485e+00   8.4870577e-02
  2.7723536e+00   9.7369157e-02
  4.9157074e-01   9.5209278e-02
 -1.2280257e+00   6.4344406e-02
 -1.8367281e+00   3.1593271e-02
  3.3343818e-02   5.7957329e-02
  2.1907456e+00   8.5341975e-02
  1.1966767e+00   5.3667035e-02
 -1.1629720e+00   9.6011423e-02
  1.5207090e+00   7.5547211e-02
 -2.8094549e+00   9.3424261e-02
  3.2259238e+00   7.1302027e-02
 -1.8564613e+00   4.3236226e-02
  2.6015522e+00   4.9399171e-02
 -1.7850097e+00   6.1079584e-02
  1.9707458e+00   6.8196706e-02
  1.8215630e+00   8.1898846e-02
  2.2907008e-01   9.8488033e-02
 -1.7160227e+00   6.8914153e-02
 -1.4613815e-01   9.3874067e-02
 -4.2104238e-01   7.5022295e-02
 -4.4513288e+00   6.0891766e-02
  2.1923992e-01   2.4093797e-02
  1.5741712e+00   9.6066840e-02
 -4.9165142e-01   7.8763984e-02
 -3.0718207e-01   7.9532914e-02
 -9.1084409e-01   8.3266035e-02
  3.6767155e-01   9.9695116e-02
  5.9379506e+00   7.3267102e-02
 -5.9027159e-01   8.5977048e-02
 -1.3233341e+00   9.3964390e-02
 -4.4686681e-01   6.2679648e-02
  1.6642768e+00   6.4559467e-02
  4.7957763e-01   5.0207920e-02
  9.1090345e-01   7.8903712e-02
  3.3382830e-01   7.5001895e-02
  3.3894901e+00   6.5101340e-02
 -1.1073246e+00   7.8166343e-02
 -3.2101467e+00   5.9664566e-02
  2.1403167e+00   7.2161205e-02
  5.1850696e+00   6.9591403e-02
  4.3161398e-01   9.6195765e-02
  1.9274969e+00   3.5894282e-02
  1.0164351e+00   5.0245389e-02
  2.6097353e+00   6.3654825e-02
 -3.0502360e+00   6.2160786e-02
 -1.3997253e+00   4.5170411e-02
  2.4838810e+00   7.4357346e-02
 -2.1663742e+00   9.9212326e-02
 -9.9732548e-01   5.0151844e-02
 -8.1110054e-01   5.4544300e-02
 -1.2769972e-01   9.6158668e-02
  3.7211454e-01   7.4656412e-02
  5.4474384e-01   3.5442941e-02
  3.1043062e+00   9.2846394e-02
 -2.2883034e+00   9.2521451e-02
 -1.8009639e+00   7.2806761e-02
  1.3771783e+00   7.5422660e-02
  2.5333041e-01   5.3246401e-02
 -1.6200364e+00   6.2348019e-02
 -1.2575922e+00   4.8216231e-02
  2.0794802e+00   6.8023950e-02
 -9.7509241e-01   9.9594541e-02
  6.8398875e-01   4.2796500e-02
  2.1831465e+00   7.2141923e-02
 -3.6158559e+00   3.8768899e-02
  1.6449308e+00   9.5267706e-02
 -9.0923107e-01   2.8082917e-02
  1.9971800e+00   7.0539698e-02
  3.5654192e+00   7.3364593e-02
  3.3220873e+00   9.6591808e-02
  8.5339248e-02   6.7805529e-02
 -1.5153549e+00   7.6553844e-02
  4.2106487e-02   9.6705988e-02
 -1.0302011e+00   9.1632843e-02
 -5.2853670e+00   7.0154905e-02
  1.1418062e+00   6.2297907e-02
 -2.8379428e-01   9.9529907e-02
  4.1037016e+00   7.2711103e-02
  1.3470596e+00   6.2527254e-02
 -3.8476777e-01   8.2071796e-02
  1.8717450e+00   5.8760386e-02
 -1.7534372e-01   8.2265295e-02
 -2.7340338e+00   8.3014905e-02
  2.7764750e+00   8.1766762e-02
 -2.1012096e+00   6.9319770e-02
 -6.9682360e-01   6.0565159e-02
 -2.3811450e+00   7.3281862e-02
  2.4048409e+00   7.4280530e-02
  1.9091197e+00   9.1568679e-02
 -2.6133642e+00   6.1886769e-02
 -1.6348562e+00   6.2302753e-02
  2.8980684e-01   8.3968095e-02
  1.6831172e+00   9.6944049e-02
  3.4186594e+00   5.0484415e-02
  1.5213310e+00   7.4415721e-02
 -2.1774995e+00   5.5553015e-02
 -4.0430006e-02   5.3195450e-02
 -6.1516351e-01   6.4023808e-02
  2.1882176e+00   7.0432022e-02
 -3.7182903e-01   8.1192493e-02
 -4.5994323e-01   7.1020044e-02
 -1.6765721e+00   5.6932926e-02
 -3.7080734e+00   7.3281370e-02
 -3.0353572e+00   6.8034984e-02
 -1.0749699e+00   5.7666030e-02
 -4.0943475e+00   5.1425181e-02
  2.8261342e+00   9.8820679e-02
  1.0100960e+00   6.6631086e-02
 -2.1917149e-01   5.5374075e-02
 -6.2354789e+00   8.0558904e-02
  4.6410143e-01   6.5091215e-02
  5.2962977e-02   4.3903746e-02
  6.4750189e-01   6.7677729e-02
  2.5134528e+00   9.7911164e-02
 -1.0759439e+00   5.8180023e-02
 -2.3572089e-01   7.5721756e-02
 -5.9401283e+00   7.7446848e-02
  1.0731106e+00   7.4262671e-02
 -4.3453979e+00   6.0824744e-02
 -2.0615606e+00   8.1676722e-02
 -7.2155267e-01   4.6358690e-02
  1.1330854e+00   9.3961760e-02
  1.5583502e+00   8.7311134e-02
 -1.1204381e+00   7.4684761e-02
  4.0965360e-01   4.9498901e-02
  1.0140667e+00   5.8511961e-02
 -1.6465245e+00   5.1948637e-02
 -1.8936061e+00   5.1317152e-02