  7.5639248e-01   8.3395436e-02
  3.4188488e-01   8.2455218e-02
 -4.0157957e+00   4.3974228e-02
 -6.5747848e+00   8.5489586e-02
  2.7531743e-01   8.2505628e-02
  4.1425114e+00   8.4855549e-02
 -2.2839427e+00   7.4706063e-02
  1.9266806e+00   4.7945265e-02
  4.8437538e+00   1.9727983e-02
  1.2379770e+00   4.0840521e-02
  1.2096571e+00   9.1468342e-02
 -8.1030929e-01   8.5546419e-02
  4.9666915e+00   3.0274833e-02
 -7.8877872e-01   1.2628194e-02
  1.6711622e+00   2.3601308e-02
  1.2104288e+00   7.7710971e-02
  5.2605386e+00   8.8494174e-02
  1.5887631e+00   6.8123356e-02
  7.6629663e-01   9.9350289e-02
 -4.3737893e+00   3.8939562e-02
 -1.2168790e+00   1.8218586e-02
  5.0421572e-01   3.0927517e-02
 -1.1653376e+00   4.6361588e-02
  5.6117803e-01   7.5617437e-03
  3.3554962e-01   9.4441280e-02
 -4.0879333e-01   9.3005635e-02
 -6.0092902e-01   1.2646797e-02
  3.3276095e+00   7.4772991e-02
  2.6528876e+00   3.0748876e-02
  1.1517166e+00   1.4565296e-02
  5.0052080e+00   6.9422863e-02
  7.7561639e-02   2.1241272e-02
  3.3454546e-01   9.8918006e-02
  1.0532261e+00   8.1905194e-02
 -1.6337876e+00   5.8273628e-02
  5.0153522e+00   9.1671556e-02
 -1.0467990e-01   5.4153118e-02
 -1.2591894e+00   3.0069117e-02
  7.6835889e-01   8.7821543e-02
 -7.8208768e-01   1.2160802e-02
  3.2394843e+00   5.7844181e-02
 -1.6729091e+00   7.7074826e-02
 -3.1985316e+00   8.0044746e-02
 -7.2086251e-01   5.3653631e-02
  3.9294527e+00   3.7286986e-02
 -1.1956728e+00   8.8000186e-02
  8.9349955e-01   7.7079870e-02
 -2.0923194e-01   3.9697267e-02
 -6.1875772e-01   5.0863400e-02
 -1.2172738e+00   3.3449970e-02
 -1.5668629e-02   3.8778745e-02
 -1.8640671e+00   9.7154966e-03
 -1.6656742e+00   9.3936600e-02
 -1.4682423e-02   9.6116573e-02
 -5.9685302e+00   7.3827140e-02
 -6.9722968e-01   2.3835393e-02
 -1.1522691e-01   8.2131810e-02
  6.7090529e-01   1.6373927e-02
  5.2431736e+00   7.9349600e-02
 -5.3243051e+00   8.3480395e-02
 -2.8770253e-01   3.4620073e-02
  1.3941205e+00   8.2203396e-02
  1.8187343e-01   4.3930072e-02
 -1.0637703e+00   2.4755470e-02
  1.1409258e+00   3.5287976e-02
 -4.2783138e-01   6.5301098e-02
  2.2086084e+00   4.8824787e-02
 -3.0265749e-01   4.6397593e-02
  2.2528126e+00   6.9459856e-02
  2.1375198e+00   5.2616186e-02
 -6.4439197e+00   3.0064614e-02
  2.9481320e+00   1.8268423e-02
 -2.1427698e+00   3.5360578e-02
  5.6779251e-02   9.4353020e-02
  6.8771291e+00   1.9707495e-02
  1.9786701e-01   9.7221946e-03
  1.1494415e-01   3.9868753e-02
  2.0835714e+00   9.8627783e-02
 -2.7950442e-01   4.3778684e-02
 -6.2897676e-01   7.7463061e-02
  1.7167778e+00   8.0610514e-02
 -1.4336412e+00   4.4746354e-02
 -2.3414845e+00   4.1547727e-02
  3.4170444e+00   1.9408660e-02
 -5.0956631e-01   5.5718854e-02
  1.8668443e+00   3.7515450e-02
 -2.2523093e-01   6.6573739e-02
 -1.2073027e+00   2.2070523e-02
  5.1251906e-01   4.6791263e-02
 -2.2939169e+00   8.0069415e-03
 -4.0284032e-03   8.7154135e-02
 -1.5896068e+00   4.6435338e-02
 -2.7937076e+00   1.7977268e-02
  6.8997097e-01   3.7079301e-02
  2.8773091e+00   1.4256608e-02
 -3.9546236e-01   4.5015472e-03
  3.0371168e+00   6.1756078e-02
  6.8222064e-01   6.7421474e-02
 -1.8834008e+00   8.9645453e-02
  2.4177159e-01   3.4100525e-02
  1.8917199e+00   7.0425913e-02
  2.8845031e+00   4.2279568e-02
  1.3230580e-01   5.4487798e-02
  1.8715423e-01   1.6233072e-02
 -1.9396023e+00   8.2603797e-02
 -2.9081833e-01   6.1354361e-02
  9.9828053e-01   6.4773858e-03
  2.1972854e+00   9.0698786e-02
  3.7940683e+00   4.1221153e-02
  7.6955980e-01   7.2391316e-02
  1.1649431e+00   9.0381794e-02
  8.2628326e-03   7.8987507e-03
  3.6224344e+00   4.5090940e-02
 -4.0740981e+00   5.6401405e-02
 -3.8919811e+00   7.1962297e-02
  1.7917050e+00   5.7010692e-02
  3.2145693e+00   2.2975858e-02
  1.3205101e+00   4.7994297e-02
 -4.4889683e-01   9.2391722e-02
 -1.8423134e+00   6.4586252e-02
 -5.8226854e-01   4.8870135e-02
 -1.0727239e+00   3.8314853e-02
  1.0301571e+00   5.7715572e-02
 -2.0682189e+00   6.8484232e-02
  2.8050737e+00   7.9139650e-02
 -1.1618222e+00   9.5558003e-02
  9.0970641e-01   5.9787080e-02
 -4.3480496e+00   4.2669632e-02
 -6.7033753e-02   5.7502080e-02
  3.3653142e+00   1.0000000e-01
 -6.3389301e-01   6.9492847e-02
 -1.8906896e+00   3.4891728e-02
 -1.9152876e+00   8.3873697e-02
 -1.6785357e+00   5.4935250e-02
 -5.0840534e-02   9.8170497e-02
 -8.3392304e-01   9.8070465e-02
  2.1220007e+00   1.7494753e-02
  5.9578794e-01   5.3677838e-02
  1.0632037e+00   2.6312158e-02
 -2.3319089e+00   9.2525110e-02
  4.8627973e+00   4.0706608e-02
 -7.2162189e-02   5.1692910e-02
  5.9956676e-01   4.0245399e-02
 -1.8908246e+00   1.0862113e-02
  1.6147949e+00   8.5838705e-02
  2.5017378e+00   5.5487797e-02
 -2.6668608e+00   9.9865906e-02
 -5.1516099e+00   4.5239937e-02
  1.2087997e+00   8.0984727e-02
 -4.3666205e+00   7.2810468e-03
 -9.8976082e-01   4.3970399e-02
 -5.7592732e-01   2.9756099e-03
 -2.6892922e+00   4.4637565e-02
 -1.8065650e+00   6.0577627e-02
 -5.5606240e-01   6.1855283e-02
  1.7779062e+00   6.0377818e-02
 -1.3501760e+00   1.5591224e-02
  1.2992337e+00   1.4102992e-02
  4.4167164e-01   3.0367084e-02
  6.0344076e-01   1.4197468e-02
 -1.8383012e+00   2.4396462e-02
  2.4550748e-01   4.2434122e-02
  4.6465269e-01   5.5951349e-02
 -1.0265450e+00   9.5333844e-02
  2.3162332e+00   4.3876536e-02
 -3.4009469e-01   9.1759533e-02
 -5.9805450e+00   6.5275759e-02
 -6.1010832e-01   5.4258268e-02
 -1.8256922e+00   7.3162541e-02
 -1.1482472e+00   7.6380245e-02
 -4.6570093e-04   5.6052659e-02
 -6.5207630e-02   7.1967617e-02
 -1.0352227e-01   2.6602805e-02
 -3.4113351e-01   9.3621559e-02
 -2.4117956e+00   2.3483539e-02
  1.9945508e+00   3.6691535e-02
  6.2942801e+00   9.2065811e-02
  3.9527059e-01   6.2082808e-02
  2.1703618e+00   1.9959452e-02
 -2.3105395e+00   1.9453082e-02
  1.5987921e+00   5.3109739e-02
 -8.0942649e-01   5.9712566e-02
 -4.9934363e+00   1.0854344e-02
 -6.1077461e-02   7.8677803e-02
  3.4166348e-01   2.2097621e-02
  1.7828336e+00   9.6425861e-02
  2.8218620e+00   7.7891774e-02
  4.5589339e-02   2.5236525e-02
 -4.1593752e+00   7.7809863e-02
  8.2875055e-01   6.0861196e-02
  7.7007389e-01   8.3639629e-02
 -8.9826822e-01   2.5141351e-02
 -1.2601022e+00   1.7112361e-02
  1.4845618e+00   7.4052922e-02
  3.0177810e+00   5.0240412e-02
  6.7306168e-02   1.8895468e-02
  7.2526073e-01   1.3146915e-02
 -5.3267801e-01   1.7083203e-02
 -3.0513862e-01   5.9844865e-03
 -4.9264434e-01   5.8946542e-02
  3.9382985e+00   4.4277813e-02
  4.9284420e+00   8.7216422e-02
  5.7900505e+00   6.0252137e-02
  1.3922355e+00   5.2931994e-02
  1.0901926e+00   3.0218929e-02
  2.9106915e+00   4.7128517e-03
 -1.3280565e+00   3.8272217e-02
  6.9002521e-01   4.5367606e-02
 -1.0096842e-01   1.1392239e-02
 -1.0332685e+00   5.5034850e-02
  1.9578317e+00   7.2980940e-02
 -1.8390094e+00   2.2787709e-02
 -4.6590509e+00   6.8944953e-02
  8.4577626e-01   6.5063894e-02
  3.8929891e-02   8.2552498e-03
  2.3282382e+00   6.8745017e-02
 -1.2575998e+00   1.0000000e-01
  3.9708660e+00   6.9896922e-02
  2.2676957e+00   1.7628878e-02
 -1.0724145e+00   4.5820676e-02
 -2.9651389e-01   8.0349870e-02
  1.7810704e-01   7.0176683e-02
 -1.0376018e+00   4.4240810e-02
  2.6846912e+00   1.7964164e-02
  3.5493290e+00   8.8766953e-03
  9.2221081e-01   5.6769848e-02
  2.3527863e+00   5.6533746e-02
  1.5599239e+00   4.6084847e-02
 -8.8919079e-01   4.6581596e-02
  5.4879552e-01   6.2664770e-02
  3.7821953e+00   1.6916268e-02
  1.1316204e+00   2.1930164e-02
  2.5665264e+00   2.4440825e-02
  2.9736005e-02   1.3650227e-02
 -1.5021971e+00   8.1492707e-02
  2.0151150e+00   8.6160332e-02
  1.6052189e+00   9.7879522e-02
 -4.5430136e-01   2.1630574e-03
  1.8498641e+00   6.6513452e-03
  2.9855011e+00   9.4144829e-02
  2.3665428e+00   6.3729174e-02
  1.6749158e+00   2.9284403e-02
  2.2015085e+00   5.4248422e-02
  4.1062789e+00   7.0031606e-02
  2.5152063e+00   7.6415934e-02
  3.6455760e+00   6.4486802e-02
 -1.8252145e+00   8.8395357e-02
 -2.8441849e+00   1.2256254e-02
 -1.0262179e+00   7.7026077e-02
  6.3508811e+00   2.4754279e-03
  2.6020286e+00   9.0506338e-02
  2.7047703e+00   1.3850824e-02
  8.4652776e-01   1.5264665e-02
  2.4836123e-02   1.2094550e-02
 -2.2987702e+00   2.3117062e-02
 -2.2615132e+00   5.7654031e-02
 -1.4161745e+00   3.0809138e-02
  6.0077667e-01   1.6020957e-02
 -1.0163141e+00   7.8150176e-02
 -1.5049362e+00   8.5531279e-02
  2.5783784e+00   1.5442465e-02
 -6.6946179e-01   4.3001890e-02
  2.5693603e+00   6.3646704e-02
 -1.5618245e-01   7.0896849e-02
 -2.4289978e+00   1.2340578e-02
 -4.0742272e-01   6.4343870e-02
 -8.4268704e-02   6.1699226e-02
 -1.0533667e-01   3.4756240e-02
  8.4283555e-01   6.0021514e-03
  3.9415923e-01   6.5869920e-02
 -7.6443255e-02   4.2548008e-02
  1.5210031e+00   4.7275495e-02
 -1.3065363e+00   2.8071012e-02
  6.8380320e-01   9.6790820e-02
  1.6514533e+00   5.1377751e-02
 -3.7450144e-01   6.2743418e-02
  3.5048524e-01   4.6716824e-02
  2.6379851e-01   8.1140235e-02
  5.2840281e-01   2.0050598e-02
 -1.0964335e+00   5.0794095e-02
 -4.1174726e+00   3.0962802e-03
 -3.4145374e+00   2.1708272e-02
 -2.7966330e+00   3.8946372e-02
  1.0739772e+00   3.2507062e-02
  3.3276558e+00   7.0914783e-02
 -7.0839071e-01   7.3152423e-02
 -4.4749460e-01   2.5766667e-02
  2.2961450e+00   2.4114158e-02
  7.4403715e-01   5.7062064e-03
 -1.1284127e+00   7.0545919e-02
 -2.2204747e+00   7.2165608e-02
 -1.4161706e+00   6.9273435e-02
  3.8245959e+00   4.6434678e-02
  3.0330694e+00   2.6410665e-02
 -1.8013051e+00   8.3617836e-02
  6.3432157e-02   7.5152338e-02
 -9.5967865e-01   6.9079638e-02
 -5.0057969e+00   7.4516363e-02
 -1.1254330e+00   5.1601116e-02
 -5.9416860e-01   5.8391783e-02
 -1.0078802e+00   5.7793286e-02
  1.0584359e+00   8.1279799e-02
 -2.9149141e+00   9.4061576e-02
 -1.0391423e+00   6.9096230e-02
 -1.9561995e+00   8.3834618e-02
 -4.0808612e-01   1.4840618e-02
  3.2836587e+00   3.2093070e-02
  2.5109638e-02   1.3687680e-02
  6.8488246e-01   2.7913367e-02
 -3.1401613e+00   8.0882140e-02
  3.7352347e+00   4.2903796e-02
  2.3957179e+00   6.3347578e-02
 -1.8840126e+00   1.9805947e-02
 -4.7465482e-01   3.1188222e-02
  5.1614076e-01   7.2305940e-02
  2.0155032e+00   8.4401714e-03
 -9.9386793e-01   3.1197481e-02
  3.1265833e+00   4.0647693e-02
  1.6179655e+00   1.0654850e-02
 -3.2410128e+00   3.7834931e-02
  1.4420898e-01   5.3808983e-02
  5.3907971e+00   2.6847132e-02
 -5.4349895e+00   1.8989827e-02
 -6.1936080e-01   8.6065404e-02
  8.2064849e-01   8.7371781e-02
  1.2165035e-01   2.1196831e-02
 -1.4813067e-02   3.9922576e-02
 -3.4376976e-01   5.4637533e-02
  2.7749150e+00   1.7415257e-02
  2.8431365e+00   6.1119717e-02
  1.3066891e+00   3.0725284e-02
 -7.5240083e+00   1.9804774e-02
  6.2130219e-01   3.6111090e-02
  6.0651612e-01   2.3858098e-02
  1.5028049e+00   5.1637445e-02
  1.9150009e+00   1.2731703e-03
  5.8788147e+00   2.7554767e-02
 -4.3579876e-01   8.0824226e-02
  1.8248550e+00   2.0896932e-02
 -7.1514469e-01   2.9623099e-02
  2.6484170e+00   2.0058444e-02
  5.0257688e+00   6.7418098e-02
 -5.0296102e+00   6.6737376e-02
  1.7783967e-01   1.9992502e-02
  1.6517147e+00   8.8832796e-02
 -8.5259515e-01   8.1662714e-02
  1.1453429e+00   7.7170625e-02
 -1.3753557e-01   6.6839658e-02
 -2.3518436e+00   2.4016216e-02
  9.8423207e-01   7.1236983e-02
  5.3216320e-01   9.2981748e-02
  1.6563926e+00   5.5924356e-02
 -7.3791468e-01   2.5496740e-02
  1.6697159e+00   5.2182335e-02
  2.6624823e+00   9.3386054e-02
  6.5023291e-01   4.4470284e-02
 -1.8525325e+00   8.7435469e-03
  5.3403723e-01   1.6900178e-02
 -1.8752115e+00   3.7660789e-02
  3.0335088e+00   5.3238988e-02
 -3.4881878e+00   7.7648602e-02
  2.1867707e+00   5.5265065e-02
 -4.9360343e-03   9.3284011e-02
  9.9834695e-02   2.0156851e-02
  9.0396726e-01   6.1665438e-02
  4.3055820e+00   5.9583884e-02
 -2.9420016e+00   1.5407919e-02
  6.0486919e-01   5.1640879e-02
  7.7542663e-01   8.5841894e-02
 -3.7063560e-01   1.9492485e-02
 -1.4897825e+00   6.3155428e-02
  5.1486754e-01   1.1213683e-02
  4.4995017e+00   1.0000000e-01
 -1.7384557e+00   2.1433454e-02
 -1.5030970e-01   5.4308530e-02
  7.1091156e+00   4.0610548e-02
  1.8591738e+00   2.6799962e-02
 -3.4478645e+00   1.8330446e-02
  6.0160404e-01   8.8016577e-02
  6.2905884e-01   5.6638364e-02
  5.0828010e-01   2.2648823e-02
  5.8403987e-01   2.6263883e-02
  1.5960836e+00   1.5882285e-02
 -1.8674127e+00   4.9809713e-02
 -2.2745486e-01   9.8037496e-02
 -1.2453771e+00   8.7926418e-02
  5.6468048e+00   1.2087421e-02
  1.0495890e+00   1.6449114e-02
  1.4939487e+00   8.2395151e-02
 -5.5818224e-01   5.2710678e-03
 -3.8896146e+00   3.6051616e-02
  2.5033066e-01   3.8361646e-02
 -4.2827052e-01   8.5468374e-02
 -6.3242000e-01   1.5196755e-02
 -9.7514373e-01   1.4376688e-02
  1.1462803e+00   7.8487836e-02
 -2.0164642e+00   6.2363364e-02
 -3.9615736e+00   3.3496264e-02
 -3.3107796e+00   3.2289021e-02
  5.9629411e-01   9.3170121e-02
 -1.1158388e+00   5.5625655e-02
 -2.5131556e-01   2.5940498e-02
 -7.2802991e-01   8.8769242e-02
  2.7410436e+00   3.3195835e-02
 -2.0472298e+00   1.7266138e-02
  3.2887173e+00   1.9942787e-02
  1.9933087e+00   3.8132850e-02
 -1.0326707e+00   3.8299732e-02
  5.6688967e+00   5.6990679e-02
 -2.7150607e+00   3.4945391e-02
 -1.6460220e+00   2.1162935e-02
  7.1484649e-01   1.6342575e-03
  1.1078144e+00   3.5541221e-03
  3.5365274e+00   2.7185945e-02
 -1.0842421e+00   6.1113235e-02
 -3.6652980e+00   1.0194220e-02
 -3.7781611e-01   4.8937738e-02
 -2.3479259e+00   9.7751841e-02
 -7.4554193e-01   5.8575522e-02
  1.5700321e+00   1.4391781e-02
  4.9132991e+00   8.8834941e-02
 -4.7196713e-01   1.6473366e-02
  4.8859018e-01   6.8598323e-02
 -5.0418437e-02   7.4545063e-02
 -8.7935227e-01   8.8245198e-03
 -6.5505072e-02   5.1332407e-02
 -1.5957079e+00   1.7206870e-02
  8.1385899e-01   6.9479849e-03
 -7.7196479e-02   6.4502507e-02
 -1.8247349e+00   8.5417643e-02
 -5.6316209e-01   2.6942704e-02
 -7.3710304e-01   6.9864839e-02
  1.0260589e+00   5.4260939e-02
  1.4274151e+00   9.4076954e-02
  7.1046218e-02   1.4261654e-02
 -2.6790948e+00   7.2701782e-02
 -2.1622095e+00   8.5747562e-02
  3.0390592e-02   7.7089772e-02
 -1.2770097e+00   1.5220576e-02
 -3.8497796e+00   4.7224008e-02
 -1.0554177e+00   3.1407550e-02
  1.1327455e+00   1.0748670e-02
  9.6049887e-01   4.6511073e-02
 -2.6610584e+00   5.4203551e-02
 -2.9259604e-01   7.0096061e-02
  4.2990971e-01   2.7812846e-02
  4.2256441e+00   5.7132680e-02
  4.7367044e-02   9.2783496e-02
  5.0197655e-01   6.1717082e-02
 -7.1541470e-01   4.4055484e-02
 -2.3474259e+00   8.5906953e-02
 -1.4246433e+00   1.8539818e-02
  6.7873478e-01   6.0026690e-02
  3.6503263e+00   3.5742376e-02
 -1.0254864e+00   5.6359708e-02
  5.1830345e-01   8.1497945e-02
  1.3095694e+00   6.2454987e-02
  3.0371720e-01   3.2625176e-02
  3.3140550e+00   6.4254001e-02
 -5.4177332e-01   9.3144542e-03
  1.2316117e+00   9.3920372e-02
  1.4237069e+00   1.6787138e-02
  5.3927875e-01   6.6649988e-02
 -8.2580745e-01   8.4733874e-02
 -1.8273264e-01   4.0728960e-02
 -5.5395955e-01   5.5680256e-02
 -1.4952419e+00   3.2167736e-02
  2.8207057e+00   6.5960892e-02
  1.1209203e+00   4.2931203e-02
  2.8866479e+00   6.1358664e-02
  4.8297982e+00   3.4818821e-02
 -4.7854006e-01   3.0631775e-02
  8.1967700e-01   2.1822562e-02
  5.0038486e-03   2.0955108e-02
 -3.9803739e+00   1.0453981e-02
  1.8662767e-01   2.2088898e-02
  5.0030380e-01   2.2613328e-02
 -6.2895578e-01   4.8626848e-02
 -9.6268952e-01   2.1446576e-02
  4.8710722e-01   2.7114604e-02
  5.4390178e+00   4.5184914e-02
 -1.5789258e+00   5.7766140e-02
 -2.1734192e+00   6.7509241e-02
 -1.6803327e+00   6.7672417e-03
 -3.1535676e+00   7.5681582e-02
 -1.1081126e+00   8.8899292e-02
  1.0860052e+00   1.8573092e-02
 -6.4902765e-01   2.6559032e-02
 -1.8662202e+00   7.7217892e-02
 -1.9401927e+00   4.3331895e-02
  4.9454989e+00   8.4535047e-02
 -1.5785499e-01   3.3213921e-02
 -2.8092823e+00   7.0761353e-02
  1.6810527e+00   4.9585849e-02
  6.6063237e-01   2.9189179e-02
 -2.4610722e+00   6.4865962e-02
 -2.9263573e+00   2.1483393e-02
 -1.7959419e+00   4.0826492e-02
 -1.8010464e+00   9.2478469e-02
 -1.6468208e+00   3.4179714e-02
 -2.4783067e-01   5.6124616e-02
 -9.3500829e-01   1.9300748e-02
 -4.9442539e+00   1.9213427e-02
  1.3010169e+00   4.8399881e-02
 -7.5950968e-01   4.6051193e-02
 -1.0104268e+00   2.1593198e-02
  1.5991869e+00   4.4832163e-02
  1.5849012e+00   7.7921562e-02
 -3.3738539e+00   2.9747885e-02
 -1.2527274e+00   7.4843988e-02
  4.8955762e-01   6.2713355e-02
  2.6118889e+00   3.0070342e-02
  2.6210847e+00   9.1355905e-02
 -1.4412690e+00   9.4524346e-02
  3.5616424e+00   6.9710854e-03
  2.9946050e-01   4.5539849e-02
 -9.9643022e-01   4.6464927e-02
 -2.7439308e+00   2.7558392e-02
  1.3479617e+00   5.2620348e-02
 -3.0220504e+00   5.8867544e-02
 -2.3364120e+00   5.3566206e-02
  8.1316221e-01   9.5601389e-03
  5.8553720e-01   2.2958478e-02
  4.5311680e+00   5.4189071e-02
  2.5855701e+00   4.5173932e-02
 -5.9435183e-01   2.8753903e-02
  1.3873664e+00   7.0077414e-03
 -2.9588611e+00   2.4662402e-02
 -2.0666223e+00   3.3333821e-03
  1.1087184e-01   7.8541830e-02
 -3.7957332e-01   3.7299681e-02
  3.9513414e+00   9.8453477e-02
 -4.9230555e-01   2.0826876e-02
 -2.2150972e+00   3.5682689e-02
 -2.5887623e-01   9.3130954e-02
  1.8291453e+00   5.5195112e-02
  3.2785265e+00   6.5435573e-02
  1.1290710e+00   5.7575371e-02
 -5.1573139e-01   4.0142864e-02
 -3.1355461e-01   1.4237558e-02
 -2.3810956e+00   4.7572926e-02
 -4.4033471e-01   4.7145437e-02
  1.8505335e+00   7.0492543e-02
  4.3834338e-01   5.2986853e-02
 -7.4622118e-01   8.8840321e-02
 -6.7557335e-02   5.3440776e-02
  2.6182704e+00   4.7767088e-02
  1.7284658e+00   9.5231898e-02
 -5.8014089e-01   5.4491457e-02
 -1.6674030e+00   1.9132301e-02
 -9.4629401e-01   3.1704608e-02
 -1.2928790e-01   3.6678851e-02
  1.4330651e+00   4.2795055e-02
 -3.9586517e-01   7.3949903e-02
  4.4107642e+00   7.0237659e-02
  9.8530972e-01   9.9567950e-02
  6.2491841e+00   4.9255986e-02
  3.7777326e-01   7.9283327e-02
 -1.1965228e+00   7.6133311e-02
  7.4183971e-01   8.7014176e-02
  8.6513734e-01   3.3953171e-02
  3.9352563e-01   5.8741074e-02
  2.7181712e-01   7.4819356e-02
 -2.6177847e+00   3.4031544e-02
  4.0813226e-01   6.5860935e-02
  1.3950117e+00   9.5406011e-02
  1.6840999e+00   3.6628637e-02
  2.4359002e+00   7.3644854e-02
 -1.9187371e-01   6.1437488e-02
  1.3898182e+00   5.3830635e-02
  3.6592066e+00   1.2999091e-02
  3.4044976e+00   9.0785846e-03
 -1.3366867e+00   9.0772308e-02
 -3.0853186e-02   4.7377095e-02
 -1.0595614e+00   7.9038367e-02
  9.5607698e-01   5.0893985e-02
  9.5411825e-01   5.6752533e-02
  2.7594063e+00   3.2151278e-02
 -4.3919830e+00   8.4258832e-02
 -1.6684076e+00   4.1461367e-02
 -1.8946570e+00   2.9919209e-02
 -1.5437326e+00   6.8409078e-02
 -6.5391946e-01   5.5173449e-03
  1.1582087e+00   4.5185316e-02
 -3.5517995e+00   7.3814891e-02
  2.2190309e+00   4.7128774e-02
  3.8589439e-01   4.7966585e-02
 -2.1408768e+00   8.1661008e-02
 -1.0094339e-01   7.6350622e-02
  9.0254372e-01   7.6533474e-02
 -1.1896427e-01   5.1743127e-02
  3.1213009e+00   6.3740671e-02
  4.3059874e+00   4.9921677e-02
 -9.2193288e-01   7.5377695e-02
  7.1945256e-01   2.4943201e-02
 -2.0867655e+00   1.1154028e-02
  1.5097934e+00   5.1138729e-02
 -4.1250620e+00   8.6134978e-02
 -1.6190180e+00   9.8610064e-03
  2.6309199e+00   9.2131877e-03
 -1.1058335e+00   1.8990662e-02
 -2.5820155e+00   8.5570760e-02
  1.0308682e-01   4.9745016e-02
  1.8429266e-01   9.3457982e-02
 -1.8879994e+00   6.4691864e-02
 -4.1741219e-01   3.5569388e-02
 -3.6900800e-01   8.6952314e-02
  4.0679421e+00   8.6135631e-03
  1.4033707e+00   3.5262536e-02
 -2.0410099e+00   2.8795280e-02
 -3.0680022e-01   3.3257958e-02
  3.9582685e-01   5.2344422e-03
  5.5934656e-01   7.3257916e-02
  1.3455651e+00   9.9907545e-03
  3.2724621e+00   3.6933027e-02
 -3.1605306e-01   7.1905024e-02
 -2.4926319e+00   2.5014831e-02
 -1.7248603e+00   8.4321767e-02
 -4.4194794e-01   4.1675471e-02
  8.6759865e-01   7.4814066e-02
  1.3847985e+00   3.1175386e-02
  2.0476522e-01   5.9937842e-02
  1.3086096e+00   9.1714397e-02
  4.5654294e-01   2.7741868e-02
 -1.6764940e+00   6.6749386e-02
 -2.3554969e+00   2.1403685e-02
 -5.5766392e-01   5.9324048e-02
  4.7002727e-01   5.9276160e-02
  1.8454542e+00   1.9357197e-02
  1.6183053e+00   3.5893217e-02
 -1.2845418e-01   6.6820771e-02
  7.6708853e-01   2.3007303e-02
 -4.3408543e-02   7.1679533e-02
  2.2284658e+00   6.8252370e-02
  6.4195722e-01   6.9233410e-02
 -5.8453417e-01   1.9158032e-02
 -1.5176831e+00   9.1771394e-02
  3.2362705e-01   7.7204384e-02
  1.7121286e+00   6.7652822e-02
  1.9496253e+00   1.5834762e-02
  1.2817813e+00   5.0605316e-02
  9.5915949e-01   1.5552436e-02
  1.3674256e+00   3.9809730e-02
  1.2250174e+00   1.2759162e-02
 -2.2222052e+00   5.0893523e-02
 -1.6984419e+00   3.0787918e-03
 -3.0430481e-01   2.3997277e-02
  8.8015445e-02   9.0465331e-03
  1.0450773e+00   3.1797744e-02
 -2.3332899e+00   4.8980299e-02
 -2.1154506e+00   2.6386837e-02
  1.7029933e+00   6.5735370e-02
 -2.5694740e+00   2.3356963e-02
 -4.2307046e-01   4.2276315e-02
  3.4513953e-01   2.8894929e-02
  1.5608890e+00   4.0725876e-02
  8.0837578e-01   2.8671920e-02
  8.3290970e-01   6.8025030e-02
 -1.7384444e+00   1.2966816e-02
  3.9795271e-01   2.1644442e-03
  7.5516546e-01   6.0726013e-02
 -2.7747726e+00   5.7381626e-02
 -1.4080983e+00   2.0244984e-02
 -7.9176342e-01   7.3143370e-02
 -1.0011414e+00   6.9247568e-03
  8.2780200e-01   6.8016745e-02
 -4.9718013e+00   5.9212629e-02
  1.6978604e+00   8.7932229e-02
 -3.5173593e+00   5.3849027e-02
 -6.9586825e-01   7.6723412e-02
 -5.3218043e-01   5.7823737e-03
  2.7057424e-01   1.3195934e-02
 -2.6296918e+00   2.3314014e-02
 -2.8698277e+00   5.0565504e-02
 -1.7246296e+00   4.1849101e-03
  3.2575541e+00   3.9077755e-02
 -1.9101516e+00   4.2466946e-02
 -5.0154366e+00   2.8397478e-02
 -3.5965545e+00   9.0709720e-03
  5.7286243e-03   5.2569691e-02
 -1.5807607e+00   4.9366597e-02
 -1.1492161e+00   1.9697913e-03
  1.5580971e+00   9.3306825e-02
  3.4686379e+00   7.0721030e-02
  1.3374869e+00   9.1125362e-02
 -5.7927217e+00   6.6350207e-02
 -8.1399399e-01   2.9409226e-02
 -3.6242630e+00   5.9270412e-02
 -2.2336717e+00   7.6996490e-02
  3.0339873e-01   2.3761243e-02
  4.9813479e-01   9.0531528e-02
 -3.5537672e-01   4.3466672e-02
  1.1506249e+00   2.7757995e-02
 -2.5077744e+00   5.7686642e-02
 -1.4033152e+00   1.4733997e-02
 -1.6681151e-01   9.1675833e-02
  3.4343829e+00   8.8726863e-02
 -4.3116622e+00   7.7374391e-02
 -2.2462029e+00   1.9002745e-02
 -2.9762194e+00   5.1315289e-02
 -1.3002816e+00   5.8409646e-02
  1.4513266e+00   1.2318083e-02
  6.3378346e-01   2.1620501e-02
  3.5822463e+00   8.9153722e-02
 -7.0441228e-01   7.2415896e-02
 -1.4236054e+00   7.8053311e-02
 -4.1552496e+00   6.5111764e-02
  1.3943225e+00   2.5869370e-02
 -2.1958234e+00   8.3240606e-02
  2.3491387e+00   3.3216089e-02
 -1.3373771e+00   1.0070047e-02
 -2.0416174e+00   3.4682069e-02
  4.0522337e+00   1.6136317e-02
 -2.0213833e+00   9.8574989e-02
 -3.2078603e-01   8.5871249e-02
  1.5381255e+00   4.1801222e-02
  2.8715422e+00   1.3967603e-02
 -8.0757931e-02   5.6729801e-02
 -5.1536441e+00   4.9583104e-02
  4.2610005e-01   1.5369494e-02
 -8.9809471e-01   6.5982603e-02
  1.2192204e+00   8.1874706e-02
  2.6395679e+00   4.0802583e-02
 -1.1297842e+00   5.1881377e-02
 -1.5996757e+00   6.3775882e-02
 -1.6824839e+00   6.3455932e-02
 -1.4046220e+00   3.4441534e-02
 -4.5394855e+00   5.1341061e-02
 -1.2215629e+00   3.0063124e-02
 -1.6696192e+00   6.0559496e-02
 -1.2937764e+00   7.4099316e-03
 -4.5461300e-01   7.3533639e-02
  1.9662961e-01   3.8657047e-02
 -8.5952854e+00   2.1015417e-02
 -3.2671626e+00   6.9586299e-02
  2.0421646e+00   3.8289009e-03
  2.6184456e+00   6.3279599e-02
 -4.8568815e-01   2.9015087e-02
  1.3262486e+00   9.7853057e-02
  9.2199522e-01   4.1831169e-02
  5.2265805e-01   4.5539800e-02
  6.3851136e-01   9.1883175e-02
 -3.7292728e+00   2.4622489e-02
 -1.2547730e+00   1.0693034e-02
 -6.9902599e-01   6.9846556e-02
 -3.5979435e-01   2.1047728e-02
 -3.9566095e+00   4.4579204e-02
  2.7269230e+00   9.9109188e-02
  6.2163484e-01   9.6456237e-02
  3.9716001e+00   6.1189190e-02
 -2.2103500e+00   3.2939643e-02
  1.6391612e+00   4.3330077e-02
  5.7716377e-02   9.1036573e-02
 -3.1049061e+00   6.5433294e-02
 -8.5570359e-01   5.0261635e-02
  7.3180884e-01   9.0720594e-02
  1.5860890e+00   3.2494031e-02
  2.2952359e+00   4.7865357e-02
 -1.9596455e+00   9.0210296e-02
 -9.5651686e-01   8.0171227e-03
 -2.3495166e-02   5.0203897e-02
 -2.3614745e+00   9.0874508e-02
 -9.8203987e-01   2.3592243e-02
  1.3107423e-01   3.8985014e-02
 -3.0889471e+00   5.2902050e-02
 -1.8436470e+00   1.7650697e-02
  9.1226631e-01   8.2856797e-02
 -9.1348988e-01   5.1533870e-02
 -6.8978161e-01   7.9945706e-02
 -3.0288820e+00   4.0476505e-02
  1.5133303e+00   2.8762188e-02
 -5.6982172e-01   8.1663942e-03
  5.5690891e-01   9.9806190e-02
 -4.1150551e+00   8.8260025e-02
 -4.9198097e-01   8.4757715e-02
  4.7619038e+00   1.5804632e-02
  5.5711017e+00   9.9032260e-02
  2.2781141e+00   5.8508582e-02
 -3.5499668e-01   1.0762091e-02
 -8.9464498e-01   7.3619182e-03
 -4.9788613e+00   1.8334448e-02
 -1.8742372e+00   6.3292980e-02
  2.2044604e-01   5.5747572e-02
  1.6232520e+00   1.1426165e-02
 -1.8606991e+00   2.8586704e-02
  1.4384683e+00   4.8903555e-02
  3.4586380e+00   6.8876147e-02
 -1.3214190e+00   2.0715263e-02
 -1.7346101e-04   6.0857940e-02
 -1.7424315e+00   6.0612626e-02
 -1.5948279e-02   1.3038985e-02
  1.5850292e+00   8.0254592e-02
 -1.7710661e+00   7.2312951e-02
  2.7503598e+00   9.6095286e-02
  2.3484430e+00   1.4709009e-02
 -4.6457401e-01   1.8786982e-02
  8.6451793e-01   8.0988541e-02
 -1.4532256e+00   3.3812467e-02
 -5.4687047e-01   7.7969633e-02
  3.3689609e+00   7.3280662e-02
  2.2459400e+00   5.5944957e-02
 -1.0895830e+00   7.5455844e-02
  2.1312320e+00   6.8089820e-02
  2.2701871e+00   3.6431693e-02
 -3.1253207e+00   4.9008757e-02
  3.2951562e+00   6.9310360e-02
 -2.6944323e+00   4.3858875e-02
  1.4763235e+00   3.2898121e-02
  3.8931996e-01   6.8631947e-02
 -1.1529794e+00   2.1701017e-02
  2.3525371e-01   6.9428921e-02
  1.7014195e-01   7.2523788e-02
 -3.7355855e+00   3.3904757e-02
 -7.2790228e-02   7.0312887e-02
  9.1175437e-02   1.7337058e-02
 -2.3656075e+00   9.7418159e-02
 -8.4674460e-01   9.0434514e-02
 -4.3364406e-01   7.2173029e-03
  2.7104893e+00   3.7087061e-02
 -1.0517418e+00   6.5267392e-02
  1.4523412e+00   8.8075832e-02
  1.2137014e-01   2.1454202e-02
  1.1027461e-01   6.9078311e-02
 -5.3732795e-01   5.2940357e-02
 -5.7528275e-01   4.6079483e-02
  2.3868914e-01   4.6037827e-02
 -1.0107650e+00   8.4641226e-02
 -3.0763342e+00   1.0075852e-02
 -1.5999845e+00   5.1718354e-02
 -2.5168457e+00   7.6613612e-02
  6.9064217e+00   4.5130178e-02
 -2.6449618e-01   3.3365224e-02
 -2.0617552e+00   2.3956174e-02
  2.5287379e-02   6.4067364e-02
 -4.7648898e-01   5.1677413e-03
 -3.6363664e+00   6.4426824e-02
 -3.0349960e+00   1.7556496e-02
 -8.9188850e-01   6.6068987e-03
 -4.7129294e-01   9.0704732e-02
 -4.9595031e-01   1.4749205e-02
  4.3154228e-01   3.5879452e-02
  1.4574094e+00   8.5009590e-02
  2.7266520e-01   1.7943697e-02
  1.0120173e+00   2.4357047e-02
 -7.7855086e-01   8.9454509e-02
 -1.6067022e+00   6.8116039e-02
  2.0176256e+00   9.6911669e-02
 -2.6828668e-01   7.4781710e-03
 -1.4199601e+00   8.0397101e-03
  1.3053753e+00   4.6548121e-02
  8.2634872e-01   5.2061778e-02
 -2.9103401e+00   2.3776345e-02
 -6.3022143e-01   5.9050102e-02
  1.3278139e+00   1.2913920e-02
 -2.9782245e+00   2.1234902e-02
 -2.3699048e+00   2.1657037e-02
  1.0660189e+00   1.2036880e-02
 -4.4147539e+00   9.8921806e-02
  5.6522369e-01   2.6854327e-02
 -4.5384455e-02   2.0876132e-02
  2.7529309e+00   1.9186499e-02
 -4.7406425e+00   6.9372661e-02
 -1.4215765e+00   3.8979881e-02
  4.0101969e-01   7.6367721e-02
 -1.3385968e+00   4.9220968e-02
 -6.9398028e-01   3.1737484e-02
  1.2415054e+00   1.6346253e-02
  3.6567664e+00   7.8099617e-03
  5.1683849e-01   8.5832737e-02
  2.2527966e+00   6.9577299e-02
  4.4569632e-01   6.1883833e-02
  3.5357142e-03   7.8361250e-02
 -2.6679197e-01   2.7523901e-02
  3.3396521e-01   8.0616109e-02
  9.1034269e-01   4.9121331e-02
 -1.9538739e+00   7.9405233e-02
  8.6978167e-01   2.1538746e-02
 -5.4928720e-01   1.0847345e-02
 -2.2382410e+00   4.4731032e-02
 -7.5877458e-01   1.7737832e-02
  1.2595136e+00   9.2341028e-02
 -5.1815022e-02   2.3040053e-02
 -1.4387652e+00   6.0922455e-02
 -2.4002193e-01   8.8527411e-02
 -8.3451214e+00   3.6874365e-02
  1.2149762e+00   9.0764970e-02
 -7.5084770e-01   7.7000022e-02
  1.1084126e+00   5.7346836e-02
 -2.0756679e+00   1.4691108e-02
 -1.1090905e-01   1.0221206e-02
 -8.4199041e-01   9.6553005e-02
  8.3295071e-01   9.6892320e-02
 -2.1790721e+00   1.1500954e-02
  1.7937121e-01   1.3550160e-02
  1.1909025e+00   1.1204558e-02
 -3.0001183e+00   2.3765014e-02
  1.7500577e+00   3.2249894e-02
  8.9866275e-01   3.2599278e-02
 -1.0679110e+00   3.4162816e-02
  6.9821316e-01   8.4511958e-02
  3.2066903e+00   6.6580132e-02
 -2.0714276e+00   6.1798342e-02
 -2.0418009e-01   7.8401767e-02
 -2.0713325e-01   8.7402448e-02
  1.7373681e+00   3.5679214e-02
 -1.4696991e+00   9.9166833e-02
  3.8772244e+00   1.3599399e-02
 -9.2125666e-01   4.0716946e-02
  1.7089078e-01   4.9431697e-02
 -2.2731187e+00   4.2663116e-02
  2.1309161e+00   2.7001921e-02
  3.5587766e+00   2.5635486e-02
 -3.7703071e+00   2.6153829e-02
  7.6536122e-03   9.8247565e-02
  3.9134998e-02   7.5415336e-02
  7.6386869e-01   7.9553589e-02
 -1.7473906e-02   2.4842434e-02
  2.7301934e+00   6.2292241e-02
 -7.4263071e-03   7.2481044e-02
 -5.2586067e-01   5.6838151e-02
 -4.2256370e+00   5.4583747e-02
 -1.2583698e+00   4.6326499e-03
  4.9853249e+00   1.8698903e-02
 -3.0570340e-01   1.9590922e-02
  4.3890777e-01   7.7522427e-02
  1.4948518e+00   4.5392927e-02
 -2.6075180e+00   3.7421860e-02
 -4.9253511e-01   7.6857969e-02
  1.7092186e+00   6.8489946e-02
  2.7331495e-01   1.4566026e-02
  1.1017214e+00   7.4054725e-02
  7.3295426e-01   9.6188948e-02
  2.7874622e+00   7.1530514e-03
 -3.8873243e-01   4.4562817e-02
  1.8235457e+00   9.3978755e-02
  1.0495538e+00   3.3679564e-02
  1.4092994e+00   7.8444928e-02