  6.3975346e-01   8.5819192e-02
 -1.1676657e+00   9.0420403e-02
 -3.6171646e+00   2.4680356e-02
 -4.6471047e+00   4.2904712e-02
 -2.9630816e-01   7.1388580e-02
  4.3915792e+00   8.3568513e-02
 -6.1945260e-01   6.0287949e-02
 -3.4097162e-01   7.0783325e-02
  4.7593346e+00   1.6916122e-02
  1.5875667e+00   1.9107779e-02
  7.2183740e-01   8.8521630e-02
 -1.6207386e+00   9.8849729e-02
  5.1383238e+00   2.4276135e-02
 -8.2033086e-01   6.2776189e-03
  1.4380437e+00   1.6946930e-02
  1.2242165e+00   4.8317231e-02
  6.0227423e+00   9.5375426e-02
  9.1629249e-01   8.3398439e-02
  7.0153818e-02   5.6474701e-02
 -3.1074374e+00   3.8423225e-02
 -1.0351344e+00   1.3465325e-02
 -3.7392208e-01   2.1379687e-02
 -1.0254751e+00   2.0790696e-02
  2.9937822e-01   6.0867318e-03
  1.8759519e+00   8.4296502e-02
  2.2187470e-01   7.8090616e-02
 -3.5100558e-01   9.2710583e-03
  3.0223227e+00   9.7527646e-02
  1.7416438e+00   2.9535679e-02
  8.8474643e-01   9.5291948e-03
  3.8571842e+00   7.7531286e-02
  8.2191086e-01   5.3214978e-02
  2.8833127e-01   9.0854168e-02
  1.3730554e-01   8.7685220e-02
 -8.3611572e-01   2.7208192e-02
  2.9415412e+00   7.2090968e-02
 -5.9216881e-01   4.9192496e-02
  5.4118592e-01   6.9494091e-02
  7.2393484e-02   8.4447362e-02
 -6.0565919e-01   8.8463947e-03
  2.1599240e+00   9.1716841e-02
 -1.5461328e+00   6.9954380e-02
 -1.0022395e+00   4.1445713e-02
 -6.9276172e-01   3.0426420e-02
  3.9388103e+00   7.1349321e-03
 -1.4253144e-01   2.5186146e-02
  3.4023442e+00   5.7425715e-02
 -3.8084537e-02   3.2149639e-02
  7.8966343e-01   8.5442267e-02
  7.6538050e-01   6.2723592e-02
  1.3140456e-01   2.0720791e-02
 -2.2670875e+00   5.8628744e-03
 -1.7259719e+00   3.8489114e-02
 -7.6224035e-01   8.9317963e-02
 -6.4824314e+00   5.4786686e-02
 -8.5528731e-01   1.3145790e-02
 -3.2981172e-02   9.8550089e-02
  8.2984936e-01   1.2227898e-02
  1.8746898e+00   8.9426324e-02
 -3.6161833e+00   8.7693356e-02
  6.0443443e-01   4.8438240e-02
  1.3795089e+00   9.1832243e-02
  9.0653133e-01   4.5880537e-02
 -8.6805505e-01   2.0331189e-02
  1.0620148e+00   1.1101279e-02
 -2.7145973e-01   6.6821121e-02
  1.8676226e+00   3.9811086e-02
  7.2608143e-01   3.6966491e-02
  6.6876602e-01   6.5816037e-02
  2.6764865e+00   9.0894297e-02
 -6.4127865e+00   2.2911068e-02
  3.4823751e+00   1.0637308e-02
 -2.7696528e+00   2.2089032e-02
 -6.3213289e-01   6.7560218e-02
  7.0608401e+00   1.4810256e-02
  1.2167088e-01   1.1561670e-02
 -4.9757458e-02   7.2253831e-02
  5.8584982e-01   9.9672131e-02
  1.2801413e-01   4.5885943e-02
  9.9442977e-01   6.7860313e-02
  1.3053176e+00   8.2700901e-02
 -1.2460117e+00   2.5783781e-02
 -1.6713865e+00   3.6240008e-02
  3.1203835e+00   1.6714511e-02
 -1.9055510e-01   8.2760759e-02
  1.7712704e+00   1.1867171e-02
 -3.3499557e-01   6.1020751e-02
 -1.4618496e+00   5.4834434e-03
 -1.2404339e+00   4.9478415e-02
 -2.4395299e+00   2.3755373e-03
 -8.6020660e-01   7.2319917e-02
 -7.4204797e-01   3.4558885e-02
 -2.7571971e+00   5.8198851e-03
 -5.0852094e-02   2.5074566e-02
  2.7484593e+00   6.0549942e-03
 -4.6780777e-01   1.8040899e-03
  3.0141001e+00   2.1014465e-02
  1.6621833e-01   6.3802838e-02
 -7.5745487e-01   8.4832661e-02
  1.8246859e+00   4.9565796e-02
 -1.7652574e-01   5.7998557e-02
  3.7149653e+00   2.9127592e-02
 -1.5654223e+00   6.8350077e-02
  1.2323138e-01   1.2215347e-02
 -6.6808444e-01   7.5041451e-02
 -1.9713756e+00   7.7578880e-02
  9.5604843e-01   5.6240195e-03
  2.2373897e-01   5.5963594e-02
  2.1391373e+00   9.0904735e-02
 -5.8764654e-01   3.1842407e-02
  1.4250991e+00   8.9173295e-02
 -1.3063676e-02   1.8227735e-03
  3.7359838e+00   8.8327579e-02
 -2.0340972e+00   7.0782103e-02
 -2.4851549e+00   6.0652532e-02
  1.0558974e+00   8.3330758e-02
  3.6634932e+00   3.0871421e-02
  1.2101284e+00   4.6576045e-02
  5.6786591e-01   6.3052922e-02
 -1.1081967e+00   3.7559412e-02
 -1.9037293e+00   7.0020035e-02
 -1.1601701e+00   7.3551826e-02
  1.1057471e+00   2.1609601e-02
 -9.4478405e-01   6.8076409e-02
  1.1006399e+00   6.2913686e-02
 -1.8004546e+00   8.2613595e-02
 -1.0347540e-03   4.2019472e-02
 -3.8088071e+00   4.2879067e-02
  2.2969188e-01   4.7047861e-02
  4.5240414e-01   9.2532746e-02
 -2.3732151e-01   5.7346702e-02
 -4.6120802e-01   5.1519208e-02
 -2.5703979e+00   7.7346593e-02
 -1.6221679e+00   5.1451456e-02
 -2.0031903e+00   6.0214620e-02
 -2.6208305e-01   6.9504537e-02
  2.0661571e+00   6.1618304e-03
  2.1800418e+00   4.5906454e-02
  1.6387991e+00   4.3366563e-02
 -9.2511040e-01   4.7875315e-02
  3.0713265e+00   4.8779417e-02
  2.0011865e-01   5.6397017e-02
  1.3464779e-02   9.7625151e-02
 -1.8801272e+00   1.9881127e-02
  2.3727071e+00   9.3960769e-02
  1.1848143e+00   3.4281913e-02
 -6.7403162e-01   9.5537752e-02
 -2.8930027e+00   2.8607676e-02
  8.1873316e-01   7.4661873e-02
 -4.4041595e+00   4.1267532e-03
 -6.4737463e-01   3.6019482e-02
 -6.0552043e-01   1.9817878e-03
 -1.8156450e+00   4.5212135e-02
 -2.2686725e+00   6.1041217e-02
  1.9559659e-01   5.6955796e-02
  1.3111681e+00   5.2867793e-02
 -6.1284316e-01   6.4963000e-03
  1.5391495e+00   1.2943914e-02
 -4.2417571e-01   2.1792909e-02
  6.6440254e-01   2.3805471e-02
 -2.4443381e+00   1.8534435e-02
  7.0702863e-01   4.9012203e-02
 -1.2353480e-01   3.6335412e-02
 -2.1023543e+00   9.4276100e-02
  2.0402357e-01   7.4394464e-02
 -1.1507723e+00   6.3852102e-02
 -3.5336297e+00   9.7631112e-02
 -4.2331487e-01   4.7075346e-02
 -3.1393476e+00   6.5050803e-02
  3.0725077e-01   7.1338318e-02
 -3.2761669e-01   4.7124028e-02
  6.4316732e-01   9.7380340e-02
 -5.3073460e-01   3.2745335e-02
  1.1766848e-02   9.9803336e-02
 -8.1663477e-01   8.8876449e-02
  1.9980069e+00   3.8477782e-02
  3.4073863e+00   5.2734658e-02
  5.8912927e-01   9.5377237e-02
  2.1251917e+00   6.9201607e-03
 -1.9560549e+00   1.5863528e-02
  2.6739390e+00   5.6548432e-02
 -6.3109732e-01   4.5662746e-02
 -5.2117367e+00   6.1399792e-03
 -5.6380630e-01   7.7920571e-02
  3.8986510e-01   2.3134507e-02
  1.3396200e+00   7.8914195e-02
  5.5660504e-01   9.2255861e-02
  2.9120135e-01   8.1904586e-03
 -2.8723617e+00   5.9716817e-02
  3.3361177e+00   4.5849159e-02
  1.3983005e+00   4.9567372e-02
 -8.4145540e-01   1.2396314e-02
 -1.0371218e+00   4.2929500e-03
  1.5685892e+00   6.7461491e-02
  3.2749560e+00   2.8506767e-02
  6.4831978e-01   1.9888083e-02
  9.3183303e-01   1.6304692e-02
 -2.9775971e-01   6.0309353e-03
 -3.4694102e-01   7.4573711e-04
 -2.5144917e-01   5.1870648e-02
  1.6298842e+00   8.7576307e-02
  3.0109246e+00   4.2167887e-02
  3.5509722e+00   3.8718268e-02
  1.5459539e+00   2.3555404e-02
  1.0385768e+00   3.4314726e-02
  2.9459307e+00   2.0588238e-03
 -3.5227532e+00   4.1924760e-02
  1.4746709e-01   2.9163159e-02
  1.1872829e-01   4.5424695e-03
 -6.3501410e-02   5.0896090e-02
  1.2977569e+00   5.8118574e-02
 -2.1101284e+00   1.3079579e-02
 -2.7063730e+00   6.1968531e-02
  4.8543641e-01   4.2018861e-02
 -2.9970676e-01   1.1943152e-02
  1.7947422e+00   2.8182814e-02
 -9.4811475e-01   8.9463875e-02
  6.0383658e+00   4.4807576e-02
  3.0875463e+00   3.1799510e-02
 -1.1103348e+00   1.0566026e-02
 -6.5635961e-01   7.7774897e-02
  8.2853913e-01   4.8019882e-02
 -1.0059712e+00   5.4659531e-02
  3.2597153e+00   1.3835521e-02
  3.5207784e+00   4.2563505e-03
 -3.4280971e-01   8.2407616e-02
  1.7948052e+00   7.7380233e-02
 -5.6000452e-02   5.9763014e-02
 -1.5930610e+00   3.8905188e-02
  8.1733161e-01   4.7311950e-02
  3.8522356e+00   1.9350233e-02
  6.3928217e-01   8.0309827e-03
  2.2259226e+00   2.1137845e-02
 -4.4594623e-02   1.8287439e-02
  6.1303204e-01   7.5139128e-02
  2.9902777e-01   9.0819180e-02
  1.9141483e+00   8.6198449e-02
 -4.7063160e-01   1.4953919e-03
  2.0981848e+00   3.0430695e-03
  3.6459131e+00   7.8652158e-02
 -4.2209929e-01   8.4684402e-02
  7.6231694e-01   6.9303446e-02
  8.7983614e-01   1.0000000e-01
  1.4305949e+00   5.1457275e-02
  1.2427645e+00   6.0376413e-02
  1.8606445e+00   8.1835359e-02
  4.7066533e-03   5.8602754e-02
 -3.0556788e+00   1.4092290e-02
  1.2948628e-01   6.9867939e-02
  6.3920841e+00   1.6824543e-03
 -1.7870820e-01   7.0480876e-02
  2.4097443e+00   8.2594184e-03
 -3.7278005e-01   3.6623750e-02
  2.4735607e-02   9.0260068e-03
 -1.8670688e+00   1.2828982e-02
  1.1538046e-01   1.2667724e-02
 -2.1127999e-01   3.6160491e-02
 -3.6083609e-01   6.4691100e-03
 -9.3592310e-01   8.9546360e-02
 -1.0701295e+00   5.7432488e-02
  1.6397423e+00   1.9154830e-02
  5.7135648e-01   1.2779063e-02
  2.5583820e+00   7.4127883e-02
 -5.7015264e-01   8.6475968e-02
 -2.5722952e+00   1.0057808e-02
 -7.7800280e-01   5.8604021e-02
 -4.3778014e-01   5.3896066e-02
 -7.8343779e-01   1.2642465e-02
  7.9204923e-01   3.2180676e-03
 -8.3803642e-01   6.4478405e-02
 -3.9016646e-01   7.2274178e-02
  1.5494015e+00   4.8952453e-02
 -2.0276856e+00   1.1615745e-02
  1.9832213e-01   9.4886489e-02
  1.5145700e+00   4.2160571e-02
 -7.9415339e-01   3.1555284e-02
  7.6527417e-01   4.6197098e-02
  7.8277785e-01   3.7541565e-02
  1.9388290e-01   7.9682134e-03
 -1.1357368e+00   5.3317662e-02
 -4.0707517e+00   2.4366044e-03
 -3.4478395e+00   1.4246958e-02
 -2.7022257e+00   3.4141175e-02
  3.9274791e-01   5.7677671e-02
  1.3802519e+00   6.1927930e-02
  1.4071700e-01   6.4040363e-02
 -6.2700652e-02   1.3245380e-02
  4.8712146e-02   3.0354943e-02
  9.5786262e-01   5.8213156e-03
 -4.5132115e-01   7.0179909e-02
  1.2341025e-01   4.0114027e-02
 -2.2854023e+00   8.2471326e-02
  2.8136048e+00   7.1261689e-02
  3.7548757e+00   5.0029110e-02
 -1.3403063e+00   3.8255408e-02
 -1.1334177e+00   7.7729911e-02
 -2.7540162e-01   8.5444391e-02
 -5.4017502e-01   9.1612227e-02
 -1.7882119e+00   2.5011459e-02
 -5.5210769e-01   6.3615441e-02
 -8.8953918e-01   2.7461659e-02
  4.9732050e-01   7.5485058e-02
 -2.0445478e+00   8.7268591e-02
 -1.9356326e+00   5.7794791e-02
 -9.3211955e-01   8.8153057e-02
 -5.9763557e-01   1.4943314e-02
  2.3427823e+00   1.5615704e-02
 -4.9806437e-01   8.7685781e-03
 -3.8510088e-02   1.0075698e-02
 -7.2616720e-01   7.5083740e-02
  9.7902101e-01   7.0441902e-02
  2.5132155e+00   8.1332013e-02
 -1.9303231e+00   2.1678543e-02
 -9.2658550e-01   5.4656904e-02
  6.1934274e-01   6.8756633e-02
  1.8243341e+00   3.5755632e-03
 -4.3092442e-01   1.4306008e-02
  2.2187331e+00   8.3390966e-02
  1.5696201e+00   1.5697358e-02
 -4.0893054e+00   2.4587117e-02
  6.6981882e-02   5.3966470e-02
  5.1987033e+00   1.3732957e-02
 -5.5519214e+00   1.9200459e-02
 -4.4914207e-01   8.5604168e-02
  1.2632255e-01   8.7091073e-02
  1.6483144e-01   8.4713949e-03
 -8.0722243e-02   3.1781226e-02
 -5.8853787e-01   5.4741327e-02
  2.2126484e+00   1.6718790e-02
  1.9280963e+00   3.0014282e-02
  1.1773096e+00   2.9582499e-02
 -7.0068974e+00   1.5858693e-02
  1.7664874e+00   4.1050810e-02
  1.0282865e-01   1.4666699e-02
  1.7521697e+00   5.8203187e-02
  1.8864865e+00   1.6001251e-04
  6.0677090e+00   1.7121760e-02
 -2.8041795e-01   5.1859848e-02
  1.3009148e+00   1.8409941e-02
  3.0433083e-01   2.2377957e-02
  1.8009326e+00   1.9707400e-02
  1.4203635e+00   5.3707253e-02
 -3.2639222e+00   3.2967098e-02
 -4.0394932e-02   1.7217588e-02
 -9.7407863e-02   6.3831978e-02
 -4.6665916e-01   8.8291898e-02
  7.4849010e-02   9.6146382e-02
 -1.2033732e+00   2.4636608e-02
 -2.6626616e+00   9.5338328e-03
 -1.1185421e+00   8.9889802e-02
  5.9532094e-01   6.1163254e-02
 -5.8514595e-01   2.5692374e-02
 -1.4679623e+00   3.5988312e-02
  2.3706319e+00   1.9448785e-02
  8.8500452e-01   9.2924535e-02
  8.9859557e-01   5.2066013e-02
 -2.0457802e+00   4.9784584e-03
  1.0635021e+00   2.0171352e-02
 -1.3624003e+00   3.0606026e-02
  1.9925112e+00   2.4934553e-02
 -4.2918410e-02   7.1112722e-02
  2.0679839e+00   7.2641268e-02
 -1.0682625e+00   9.0569198e-02
 -4.5802185e-01   7.4866991e-03
  4.6946615e-02   6.2233586e-02
  1.2375910e+00   7.2870232e-02
 -3.2404628e+00   9.1735329e-03
  9.5782042e-02   2.5326082e-02
  4.7525427e-01   8.1477232e-02
 -1.2277392e+00   4.2036311e-03
 -6.3260251e-01   6.9519199e-02
  9.1055471e-01   1.5358934e-02
  1.0533656e+00   7.3561117e-02
 -2.1514153e+00   2.5710339e-02
 -4.8425132e-01   8.4876351e-02
  2.8232331e+00   5.9839685e-02
  2.3247890e+00   9.6924491e-03
 -3.2322938e+00   1.5399198e-02
  5.3316170e-01   4.8812695e-02
 -5.1794332e-01   7.6501034e-02
  1.4265697e+00   1.2065073e-02
 -9.7022094e-02   2.2684556e-02
  1.7486415e+00   6.6077802e-03
 -5.5993366e-01   5.1364318e-02
 -2.7868712e-01   6.2525123e-02
  3.5372126e-01   7.6598339e-02
  5.1972265e+00   1.2485542e-02
  1.1851325e+00   6.5479875e-03
  1.2947775e-02   8.0770247e-02
 -6.4512467e-01   1.0396421e-03
 -3.9447641e+00   1.8672215e-02
  7.8553396e-01   4.2959519e-02
 -5.5506974e-01   7.8463294e-02
 -7.3402464e-01   6.5851877e-03
 -1.0433637e+00   8.7851631e-03
  1.8633802e+00   7.3082954e-02
 -3.7406805e-01   6.7087404e-02
 -3.6551492e+00   3.6710449e-02
 -2.3455033e+00   3.5715945e-02
 -1.2248832e+00   8.4225960e-02
 -7.0886648e-01   9.1412723e-02
 -5.5350500e-01   1.9640274e-02
 -5.3543073e-01   9.0497188e-02
  2.9287965e+00   2.4483673e-02
 -1.8491684e+00   2.1013957e-02
  3.3885562e+00   1.5066990e-02
  2.8634717e+00   2.9410144e-02
 -1.4802568e+00   5.0020359e-02
  3.1753881e+00   4.2542640e-02
 -3.1689401e+00   2.8552374e-02
 -1.8933513e+00   2.4051633e-02
  7.6427090e-01   3.4543077e-04
  1.1996796e+00   3.0797378e-03
  2.6050260e+00   3.9796066e-02
 -4.4040143e-01   8.8611856e-02
 -3.6633022e+00   8.9307074e-03
 -1.1682442e+00   4.2965453e-02
  2.9340631e-01   9.4620407e-02
 -5.4574001e-01   8.8356733e-02
  1.2726568e+00   1.0703192e-02
  2.5649559e+00   4.1375991e-02
 -2.2543459e-01   1.4185609e-02
  9.6961677e-01   8.2873419e-02
 -3.5151628e-01   6.3305974e-02
 -9.0672725e-01   2.8714729e-03
 -1.0024894e+00   5.4689325e-02
 -2.3415382e+00   1.5422211e-02
  1.4027725e+00   1.4259238e-02
 -9.4901782e-01   4.0240377e-02
 -5.6331676e-01   8.8023819e-02
 -1.1633880e-01   2.4942314e-02
  5.0525188e-01   5.3425878e-02
  1.0124981e+00   4.0242244e-02
  4.0849632e-01   9.9009022e-02
  2.7918234e-01   1.2553210e-02
 -1.3051246e+00   9.2085861e-02
 -8.9535928e-01   8.7202013e-02
  4.4066837e-01   6.4527206e-02
 -1.6077867e+00   2.1542668e-02
 -3.8965533e+00   4.3547448e-02
 -2.2426798e+00   1.6846331e-02
  8.4958851e-01   8.0590621e-03
  4.3565825e-01   3.2404408e-02
 -2.1951203e+00   7.9868287e-02
 -1.2145203e-02   4.2920657e-02
 -7.0899558e-01   1.9651156e-02
  2.9512796e+00   5.2426908e-02
  6.0875046e-01   4.3325789e-02
  1.2975252e+00   3.7644092e-02
  8.0004346e-01   2.4243724e-02
 -1.4684914e+00   6.0373474e-02
 -1.2682103e+00   1.1765614e-02
  2.8284338e+00   6.0476072e-02
  5.2026641e-01   7.4570715e-02
  5.0900446e-04   5.8240287e-02
  1.0952715e+00   8.3520658e-02
  8.7270331e-01   9.2876270e-02
 -4.9775038e-02   7.5325400e-02
  2.7352154e+00   7.5850666e-02
 -2.3382375e-01   1.1523025e-02
  3.9894426e+00   8.8739045e-02
  2.1098695e+00   4.6907265e-02
  1.0585123e+00   8.3434582e-02
 -9.4850349e-01   5.2546304e-02
  9.7604167e-01   4.4109728e-02
 -1.1623517e-01   6.1663426e-02
 -1.3736211e+00   1.7251939e-02
  2.7811558e+00   3.6160134e-02
  1.4264698e+00   3.9627887e-02
  1.8522316e+00   6.0173754e-02
  5.2981439e+00   2.7333917e-02
  8.0396688e-01   2.9324515e-02
  2.9521954e-01   1.9465620e-02
 -3.6648560e-01   2.5066350e-02
 -3.9059236e+00   6.5108025e-03
  2.5192356e-01   9.0501765e-03
  5.9888881e-01   3.8179282e-02
 -1.6650783e+00   9.4118766e-02
 -1.9460095e+00   2.4277236e-02
  1.1154795e+00   3.7563469e-02
  5.4863930e+00   6.3854314e-02
  6.1797094e-01   5.3658467e-02
 -5.6260437e-01   6.6113248e-02
 -1.5464513e+00   8.6981840e-03
 -1.6467496e+00   4.4966839e-02
 -2.0527070e+00   6.3921362e-02
 -2.8020883e-01   1.0221778e-02
 -7.8027880e-01   1.1948934e-02
 -1.2680093e+00   5.1005494e-02
 -2.1149087e+00   1.4799898e-02
  3.4899869e+00   7.9741523e-02
  4.6637125e-02   2.4632808e-02
 -3.1221344e+00   9.9327631e-02
  2.2456353e+00   2.8544081e-02
  5.5061299e-01   1.9646425e-02
 -3.6674741e-01   3.3468999e-02
 -3.4051962e+00   1.2027116e-02
 -2.1405516e+00   8.3896674e-02
 -6.2517208e-01   8.1805550e-02
  1.1110530e-01   4.9176537e-02
  2.7443486e-01   1.0000000e-01
 -1.0366449e+00   1.5527856e-02
 -5.0021405e+00   1.4657898e-02
  1.8656644e+00   3.2767411e-02
 -1.9340473e+00   3.7478629e-02
 -9.4906336e-01   1.3893468e-02
  3.1325012e-01   6.2485460e-02
 -2.5434494e-01   8.8879786e-02
 -3.8211014e+00   1.8867264e-02
 -1.0470245e+00   7.8229345e-02
  6.1048555e-01   6.3224547e-02
  1.1973374e+00   3.9801504e-02
  1.3370123e+00   9.8704688e-02
 -7.0731062e-01   9.7657211e-02
  3.3397164e+00   2.7261726e-03
 -2.3973401e-01   4.9503222e-02
 -6.0718429e-01   7.6376498e-02
 -1.9931940e+00   4.5545585e-02
  7.8685522e-01   3.2639742e-02
 -1.8311198e-01   8.4757395e-02
  1.4599811e-01   8.0185108e-02
  8.3962250e-01   7.0070596e-03
  6.2431949e-01   7.7494038e-03
  3.0658400e+00   9.1593891e-02
  1.4485805e+00   3.6006514e-02
 -6.1391163e-01   4.1389093e-02
  1.8296276e+00   9.3703270e-03
 -2.3461699e+00   2.6776092e-02
 -2.0792923e+00   1.5521384e-03
  6.4970058e-01   6.7176312e-02
 -7.5027639e-01   2.7763609e-02
  3.1253183e+00   7.7052489e-02
 -8.3717626e-01   9.5567415e-03
 -1.0297182e+00   3.9483048e-02
 -1.4487027e+00   8.1403248e-02
 -2.1760044e-01   3.9736349e-02
  3.2967148e+00   4.4834148e-02
  1.0750762e+00   3.7260566e-02
 -1.5615976e-01   5.1146727e-02
 -2.0090264e-01   9.7755147e-03
 -1.1672045e+00   4.7272347e-02
 -6.0594428e-01   5.1466450e-02
  1.5445026e+00   5.0175358e-02
  1.8945554e-01   7.7653937e-02
  2.7737635e-01   9.7256556e-02
  6.4782125e-01   7.9864152e-02
  4.1516705e+00   4.9855836e-02
  7.1103913e-01   8.8014714e-02
  2.1823566e-01   7.7292837e-02
 -1.7179416e+00   1.4494775e-02
 -1.3580196e+00   1.3644936e-02
 -6.6459203e-01   1.1815823e-02
 -1.3847926e-01   1.7973514e-02
  3.3289170e-01   9.2879057e-02
 -1.0220496e-01   9.8258361e-02
  5.0374436e-01   9.1910549e-02
  7.3329539e+00   2.0816632e-02
 -1.3057292e+00   8.5824974e-02
 -7.7703202e-01   5.9679389e-02
 -2.6271889e-01   8.7080896e-02
  8.4247422e-01   1.0528500e-02
  1.7456028e+00   7.6496780e-02
 -1.3185856e+00   4.8971880e-02
 -2.6467571e+00   2.0041650e-02
 -7.8336172e-02   4.0578060e-02
  2.3406487e+00   8.6784944e-02
  1.5088757e+00   4.1870236e-02
  1.5045707e+00   5.6029238e-02
  5.0332153e-01   9.0581454e-02
  1.2414495e+00   6.0760543e-02
  3.5060089e+00   2.2340456e-03
  3.7473788e+00   3.1125026e-02
 -7.9729414e-01   5.5430718e-02
  2.7082078e+00   4.5469485e-02
  8.2265365e-01   9.5275797e-02
 -6.0990798e-01   4.8844077e-02
  2.5010011e+00   4.7364246e-02
  1.4589487e+00   8.9772746e-02
 -1.9490627e+00   5.4092575e-02
 -3.6732934e+00   2.8746841e-02
 -1.9480618e+00   2.8459318e-02
 -1.0007914e+00   9.0151481e-02
 -8.0203354e-01   4.2602867e-03
  1.0208170e+00   3.7483603e-02
 -3.2875760e+00   5.7273820e-02
  1.0494181e+00   2.6071206e-02
  9.1943717e-01   3.0601768e-02
  9.0776539e-01   6.4976558e-02
  4.2457679e-01   7.1336225e-02
  1.0766553e+00   4.4220738e-02
 -8.2279032e-01   5.6284245e-02
  1.9524778e+00   6.3542597e-02
  4.3902869e+00   2.7129976e-02
 -3.1214064e-01   3.6068678e-02
  7.3938513e-01   6.1055042e-02
 -2.1655455e+00   4.8780749e-03
  9.2467558e-01   2.8845591e-02
 -2.4808679e+00   8.5206211e-02
 -2.1075206e+00   6.9852020e-03
  2.5850654e+00   5.4042134e-03
 -4.5040566e-01   1.2469304e-02
  1.0089368e-01   9.0414979e-02
 -4.7223446e-01   2.4101315e-02
  3.2736105e-01   7.1274273e-02
 -1.4800447e+00   9.7510971e-02
 -1.1290827e+00   3.9786708e-02
  6.0170817e-01   7.8165017e-02
  3.6910858e+00   1.1947583e-02
  1.7176911e+00   2.4511235e-02
 -2.1444263e+00   1.6781151e-02
 -3.4193581e-01   2.7254198e-02
  4.7876075e-01   2.3474356e-03
 -1.6363094e+00   9.7223200e-02
  1.1653910e+00   3.8568550e-03
  2.9549234e+00   3.2928873e-02
  4.8832616e-01   5.2368388e-02
 -3.7087765e+00   3.1746350e-02
  3.7477359e-01   7.8918904e-02
 -4.5524564e-01   7.6475888e-02
 -5.0663080e-02   5.1664777e-02
  6.2028897e-01   1.1288904e-02
 -7.3584515e-01   7.2400585e-02
  6.5243357e-01   6.8267711e-02
  1.8410774e-01   5.3572100e-02
 -6.0908771e-01   6.5430433e-02
 -2.6700194e+00   8.8450219e-03
 -4.0013888e-01   6.2128004e-02
  7.4584866e-01   2.5653692e-02
  1.7517070e+00   2.3898657e-02
  4.2858738e-01   2.4881328e-02
  2.1516837e-01   5.8302589e-02
 -3.9294410e-01   2.0375621e-02
  7.9836689e-02   8.4188014e-02
 -2.5432515e-01   9.1659561e-02
 -4.8645243e-02   3.5158508e-02
 -5.1236463e-01   2.7704081e-02
 -6.4586645e-01   7.3316254e-02
  7.6999283e-01   8.4921643e-02
  1.1445275e-02   7.9490662e-02
  1.7376001e+00   9.0318928e-03
 -3.7518224e-01   3.7152313e-02
  1.4588318e+00   1.1980620e-02
  4.6709925e-01   7.9784244e-02
  1.3613391e+00   1.8760834e-02
 -1.4285671e+00   8.9573465e-02
 -1.6678898e+00   8.8457152e-04
 -1.0362468e+00   2.4406638e-02
  3.3927935e-03   2.2820351e-03
  8.8526577e-01   1.6363546e-02
 -5.9432203e-01   4.9873680e-02
 -2.2249780e+00   1.1836525e-02
  2.3604076e+00   4.2946666e-02
 -2.2030189e+00   1.0107164e-02
  7.6253623e-01   2.7410386e-02
 -6.4688706e-01   2.6750611e-02
  6.3417917e-01   5.1411506e-02
  1.2012894e+00   1.4352615e-02
 -2.4481799e-01   3.1782478e-02
 -1.6839257e+00   6.9480971e-03
  3.7091923e-01   9.2839752e-04
  6.6202843e-01   6.8263285e-02
  2.9952940e-01   9.5492229e-02
 -3.9723188e-01   2.4010509e-02
  2.3144512e-02   8.3121568e-02
 -6.8269771e-01   1.8535307e-02
  1.3541242e-01   4.8018277e-02
 -4.7978826e+00   3.9446894e-02
 -8.7848765e-01   6.5309070e-02
 -2.8552201e+00   7.5058483e-02
 -2.2245513e-01   9.7086489e-02
 -3.4949604e-01   2.9377497e-03
  3.6148164e-01   1.5098370e-02
 -1.4677463e+00   2.2352770e-02
 -2.4318037e+00   3.9101902e-02
 -1.7234795e+00   4.5890614e-04
  1.9832096e+00   4.3557543e-02
  3.1057698e-01   5.5064682e-02
 -4.0958481e+00   3.3231109e-02
 -3.6113577e+00   1.2940741e-02
 -1.1569468e+00   7.6222286e-02
 -6.7804080e-01   3.8866419e-02
 -1.1360109e+00   1.4353463e-03
  1.5733565e+00   8.0200374e-02
  1.0085607e+00   5.6058004e-02
 -4.6022335e-01   4.4685360e-02
 -6.2554860e+00   4.7155034e-02
 -2.0595279e+00   6.2762611e-02
 -2.4721138e+00   5.7632186e-02
 -3.1496990e+00   3.9734047e-02
  1.3619212e+00   1.9486852e-02
 -6.9350922e-01   7.3990457e-02
 -9.2673552e-01   5.4425996e-02
  1.4378262e+00   3.0294778e-02
 -3.9634838e+00   2.6567020e-02
 -1.3868614e+00   4.3014833e-03
  2.7979892e-01   6.7899786e-02
  1.8887577e+00   8.7013789e-02
 -1.3417127e+00   9.7636886e-02
 -2.1107047e+00   8.4780082e-03
 -1.4215996e+00   8.5108913e-02
 -1.1911048e-01   3.6388066e-02
  7.5163305e-01   8.4377741e-03
  7.6195791e-02   1.3758326e-02
  7.7242267e-01   5.3129300e-02
 -1.5881217e+00   4.3012150e-02
 -3.3908889e-01   6.4672984e-02
 -3.0711586e+00   7.6868780e-02
  8.8069654e-01   2.7931921e-02
  5.3668059e-02   6.0813420e-02
  3.0086696e+00   2.0271230e-02
 -1.3015106e+00   2.1729716e-03
 -3.2941654e+00   7.1193114e-02
  3.7098918e+00   6.8168296e-03
 -1.7391119e+00   9.6444152e-02
  1.1792201e-01   8.0152430e-02
  7.9866391e-01   4.1122258e-02
  2.7322543e+00   3.8303423e-03
  7.4310249e-01   5.0940469e-02
 -4.0490942e+00   1.6874783e-02
  6.2761068e-01   4.9867746e-03
 -4.9115250e-01   4.4637989e-02
 -1.5150468e+00   7.3483020e-02
  1.6428412e+00   3.0781580e-02
  3.6186150e-01   3.6474489e-02
  4.5303732e-02   5.9196956e-02
 -7.5968546e-01   7.2126225e-02
 -6.6674024e-01   1.5339852e-02
 -2.8699954e+00   4.9917553e-02
 -7.0028889e-01   3.4775238e-02
 -1.0699110e+00   5.3547256e-02
 -1.2805141e+00   1.2815270e-03
 -1.9097587e+00   8.1582054e-02
 -3.8303819e-01   2.0348702e-02
 -8.6014986e+00   1.1701407e-02
 -1.1981739e+00   5.1323067e-02
  2.1005580e+00   2.6248128e-03
  2.3034201e+00   2.6747670e-02
 -9.6827334e-01   2.6394403e-02
  9.4332272e-01   9.7431667e-02
  1.1681721e+00   5.5373423e-02
  8.8774931e-01   3.3727013e-02
 -4.8350343e-03   6.4348690e-02
 -3.5479517e+00   1.5375978e-02
 -1.1190929e+00   3.6158811e-03
 -3.6584520e-01   9.5730655e-02
 -1.0391862e-01   2.6837416e-02
 -1.3985914e+00   6.3311033e-02
  3.6202862e+00   8.0124468e-02
  3.6188540e-01   9.9106558e-02
  2.4522018e+00   9.6468575e-02
 -1.8930126e+00   2.6786756e-02
 -6.0741687e-01   6.9042638e-02
  6.8379444e-01   3.9830215e-02
  5.2510476e-01   6.1139286e-02
 -5.1333308e-01   9.4731182e-02
  2.9187110e-01   8.6328171e-02
  1.4509827e+00   1.6056022e-02
  1.4227946e+00   3.6225602e-02
 -6.8528861e-01   3.7384953e-02
 -9.8643523e-01   4.6890159e-03
  1.2532811e+00   4.0034112e-02
 -3.2061911e-01   8.5463181e-02
 -2.7805823e-01   3.3017013e-02
 -1.6835028e-01   3.3750534e-02
 -1.0146379e+00   6.7313395e-02
 -1.2545433e+00   1.1335700e-02
 -7.3074162e-01   4.2836584e-02
 -1.4100368e+00   1.6939785e-02
 -1.6040831e+00   6.3121431e-02
 -5.0397916e+00   1.6841006e-02
  7.4192864e-01   9.8175360e-03
 -6.0559899e-01   3.8529679e-03
  4.5471899e-02   7.1752690e-02
 -2.1078002e+00   6.3656218e-02
 -2.0701779e-01   8.0927543e-02
  4.8590150e+00   5.6844419e-03
  3.6139443e+00   1.0000000e-01
  1.8697530e+00   5.4360900e-02
 -3.7600702e-01   2.3099526e-03
 -9.3171096e-01   3.4235236e-03
 -5.0891485e+00   9.2975786e-03
 -1.9307512e+00   1.6692162e-02
  1.6091208e+00   6.0361762e-02
  1.6831512e+00   8.8211503e-03
 -8.4217066e-01   1.8330351e-02
  7.5016916e-02   3.5349656e-02
  2.6716621e+00   7.9987943e-02
 -1.1320723e+00   1.8387342e-02
 -5.1500186e-02   8.6722873e-02
 -1.1278216e+00   3.4642000e-02
 -6.6522039e-02   1.3770284e-02
  3.5644078e+00   4.9677871e-02
 -3.9089569e-01   7.1076423e-02
  5.0438924e+00   9.9262863e-02
  2.7976789e+00   1.3430756e-02
 -2.4371171e-01   2.0969264e-02
 -8.7770241e-01   8.0361255e-02
 -6.3011384e-01   2.5868481e-02
  1.2740488e+00   7.6386519e-02
  1.9700648e+00   8.2781419e-02
  1.9900997e+00   8.0136202e-02
 -7.5129825e-01   7.1199521e-02
  6.1443627e-01   4.8780110e-02
  1.2657579e+00   2.3864586e-02
 -1.9827744e+00   6.5463431e-02
  2.6906805e+00   7.0835538e-02
 -5.5473894e-01   5.3533152e-02
  1.5262942e+00   2.1536604e-02
 -1.3021728e+00   4.5425560e-02
 -1.6526011e+00   4.3243628e-02
  6.4986400e-02   9.3489327e-02
  7.3128629e-01   8.5095093e-02
 -3.4100215e+00   1.6215071e-02
  2.3874970e-01   8.4106795e-02
  2.2102350e-01   2.0251311e-02
 -2.1173141e+00   6.3586496e-02
 -8.2856160e-01   4.5537982e-02
 -1.5814376e-01   5.3185769e-03
  3.7226515e+00   1.2810992e-02
 -1.6670698e+00   6.4209640e-02
  3.8560501e-01   6.6040419e-02
  2.8940436e-01   2.6130686e-02
 -1.9482510e+00   6.0684979e-02
  1.6926527e-01   3.7754070e-02
 -1.9456303e-01   3.3911560e-02
  1.8182120e-01   3.7548926e-02
 -6.4090610e-01   6.9745123e-02
 -3.1057825e+00   5.1311189e-03
 -4.8657352e-01   2.2560230e-02
 -2.6027582e+00   8.1670128e-02
  5.7817750e+00   1.7546881e-02
  4.8844823e-01   3.2059349e-02
 -1.2633466e+00   9.7144889e-03
 -8.5314661e-01   6.9947302e-02
 -5.3305018e-01   1.9510775e-03
 -3.2945905e+00   5.1727787e-02
 -2.5962670e+00   1.6598789e-02
 -8.8942343e-01   3.9257919e-03
  1.3857196e-01   3.0277180e-02
 -1.3659628e-01   1.6918031e-02
 -3.5064864e-01   4.2598791e-02
  6.2143141e-01   7.1644276e-02
  6.5345484e-01   7.8820307e-03
  1.9975812e+00   1.5789714e-02
 -1.2867751e+00   8.3650962e-02
 -1.8654206e-01   4.5413576e-02
  1.6127329e+00   8.1124082e-02
 -5.7745188e-01   9.5854774e-03
 -1.4441842e+00   8.5962592e-03
  8.7050873e-01   3.0171044e-02
  1.8082627e+00   8.4022641e-02
 -2.7763228e+00   2.0564210e-02
 -5.9630769e-01   4.0316261e-02
  1.3250800e+00   1.0925463e-02
 -2.7515252e+00   1.3887648e-02
 -2.0968425e+00   1.9582709e-02
  8.6147100e-01   8.3565852e-03
  7.9774904e-01   8.2506903e-02
  1.4647318e-02   2.8612999e-02
 -2.3271886e-01   1.9549474e-02
  2.9473555e+00   2.3726072e-02
 -5.5973369e-01   7.9506397e-02
 -1.1923152e+00   3.0661318e-02
  7.5467038e-01   6.5842509e-02
 -1.7809680e+00   2.2504138e-02
 -5.2170780e-02   1.8030534e-02
  1.4661876e+00   6.6562202e-03
  3.6556559e+00   1.5959989e-03
  7.6794767e-01   8.8475458e-02
  1.4429024e+00   4.6749167e-02
  3.2771263e-01   5.5166017e-02
 -9.0366817e-01   7.3993534e-02
 -3.9545023e-01   1.2765492e-02
 -3.6705983e-01   4.0288735e-02
  2.9780227e-01   5.4702770e-02
 -2.9373994e-01   5.4295707e-02
  4.0866342e-01   1.8788803e-02
 -3.8499346e-01   8.3711846e-03
 -5.3285170e-01   5.5314511e-02
 -7.8544587e-01   1.2015481e-02
  8.5541815e-01   9.5568389e-02
 -7.3106252e-02   1.4778077e-02
 -9.7900665e-01   5.1860821e-02
 -4.7535715e-01   8.0331035e-02
 -7.8018947e+00   4.1439768e-02
 -2.0214713e+00   7.9424895e-02
 -4.3334624e-01   9.7690217e-02
  1.3679236e-01   4.0913049e-02
 -2.2148135e+00   2.4275519e-02
 -3.6115909e-01   4.5052571e-03
 -2.0865064e+00   8.0613047e-02
 -2.8493264e-01   5.0032042e-02
 -2.4874251e+00   4.2988299e-03
  2.2388610e-01   8.9935390e-03
  1.3467407e+00   8.0254581e-03
 -3.4474223e+00   1.9692950e-02
  2.5824675e-01   2.7076434e-02
  2.0453000e+00   2.8524084e-02
  8.9599138e-01   5.2283484e-02
  7.9402465e-01   7.4621022e-02
  2.9891367e+00   2.5322722e-02
 -1.4359006e+00   5.4465480e-02
 -2.3053501e+00   8.7014079e-02
  2.8930092e-01   9.3745388e-02
  1.8841422e+00   9.5568374e-03
 -1.6251343e-01   9.8608397e-02
  4.1704106e+00   1.0701775e-02
 -2.3663437e+00   7.2842292e-02
 -1.1404482e-01   4.3058377e-02
 -1.5572397e+00   2.4202332e-02
  2.1088266e+00   3.8683191e-02
  3.1621282e+00   1.4187835e-02
 -2.7174215e+00   2.5614573e-02
  5.3693879e-01   9.9409670e-02
  5.3407776e-01   8.7200925e-02
 -1.2743853e+00   6.2106889e-02
  7.1423285e-02   1.5265988e-02
  2.4388487e+00   4.2353105e-02
 -1.8268920e+00   6.7925587e-02
  2.9043651e-01   9.0591826e-02
 -1.8619790e+00   7.4267745e-02
 -1.3520142e+00   1.9048059e-03
  4.9245496e+00   7.2680730e-03
 -1.2608663e+00   3.2503050e-02
 -1.8478615e+00   8.5139297e-02
  1.0012487e+00   2.4428967e-02
 -2.1955054e+00   3.2488115e-02
  7.5544745e-02   8.3759964e-02
  1.5133564e+00   9.4328016e-02
 -4.3490937e-01   6.2359837e-03
  2.2479031e+00   6.0700733e-02
  8.7032533e-01   9.6549764e-02
  2.7968428e+00   1.7879542e-03
  2.0256755e+00   3.1709410e-02
  6.5353984e-01   9.8766528e-02
  1.5523999e+00   5.6607943e-02
  1.8702218e-01   8.3910584e-02