  2.0817494e+00   3.8387354e-02
  3.0773604e-01   7.5995609e-02
 -4.1221652e+00   7.0751838e-02
 -2.8381178e+00   9.4558850e-02
  1.3179244e+00   9.1771916e-02
  2.0286522e+00   7.7766247e-02
 -5.4109043e-01   7.4607715e-02
  1.0453925e+00   6.3182406e-02
  3.0419898e+00   7.3454499e-02
  7.0974088e-01   5.5590805e-02
  1.4955596e+00   5.7790000e-02
 -5.1192009e-01   8.0414303e-02
  2.6121194e+00   7.1452856e-02
 -1.8928285e+00   4.0191643e-02
  3.7974753e+00   4.6995796e-02
 -8.6799484e-01   9.0346873e-02
  5.7703719e-02   4.3988723e-02
  1.6299446e+00   3.1287767e-02
 -2.0791698e+00   5.5551860e-02
 -2.5176492e+00   6.1435819e-02
  6.9646871e-01   5.6734782e-02
  1.9170791e-01   6.7279100e-02
  2.5705457e-01   9.5463812e-02
  4.0286526e-01   1.1749642e-02
  3.3015478e-02   7.5611494e-02
  2.6889095e+00   9.7371973e-02
  4.5746967e-01   3.5860613e-02
  2.2305069e+00   7.5167894e-02
  5.8409123e+00   6.7571513e-02
 -1.6228223e+00   6.2106866e-02
  4.3008008e+00   9.6013278e-02
 -2.2121136e+00   3.8802750e-02
  5.8215129e-01   6.8499655e-02
 -4.0921664e+00   8.8028960e-02
  3.2435369e-02   9.7063594e-02
  7.7420312e-01   4.6640594e-02
 -9.8914599e-01   7.0213869e-02
 -1.2942874e+00   2.1138567e-02
  1.6611968e-01   9.4187722e-02
 -1.1605562e+00   2.3021206e-02
  8.8329785e-02   5.3609069e-02
 -3.7887554e+00   4.4557285e-02
 -4.1532431e+00   9.7565040e-02
  8.1804708e-02   7.6460868e-02
  7.7088729e-02   7.7876545e-02
 -3.7463702e-02   7.2831318e-02
 -1.4394957e+00   9.1983005e-02
  1.9802392e+00   8.4576622e-02
 -4.2962822e-01   7.8977803e-03
  2.7374655e-01   3.2430470e-02
 -5.9119231e-01   5.5362422e-02
 -3.3933458e-01   2.9628443e-02
 -2.4691529e+00   6.1427116e-02
  1.0989641e+00   7.6504730e-02
 -4.0746164e+00   9.4596282e-02
 -9.9341023e-01   3.8006328e-02
  1.7656385e+00   5.7640195e-02
 -1.3653737e+00   7.7213824e-02
  1.6894004e+00   9.3207791e-02
 -3.5228133e+00   8.9813024e-02
 -3.0453765e+00   7.5874388e-02
 -4.5705688e-01   5.3213414e-02
  3.5683582e+00   6.6696018e-02
  6.9736207e-01   4.7563337e-02
  7.8220761e-01   8.5168071e-02
  1.6889999e+00   8.4851861e-02
  2.3836107e+00   7.5231060e-02
 -2.0656548e-01   2.0751856e-02
 -2.2078229e-01   6.7696720e-02
 -9.1339596e-02   8.5563257e-02
 -4.4265342e+00   7.2713695e-02
  1.9441195e+00   5.1603261e-02
  7.4308747e-01   6.8447709e-02
 -2.7686398e+00   5.1540576e-02
  4.8645597e+00   5.8463145e-02
  7.1858233e-01   4.4390418e-02
  4.3429136e-01   8.6138837e-02
  6.5026563e-01   9.0774432e-02
  1.3893023e+00   6.4333558e-02
 -1.2484528e+00   6.3082851e-02
  2.2734258e+00   7.4430838e-02
 -9.7106606e-01   7.0267081e-02
 -6.6675717e-01   6.0803782e-02
  1.9874347e+00   6.9347054e-02
  2.0154235e+00   7.7437617e-02
  5.3703368e-01   8.3901778e-02
  2.3995156e+00   9.2605203e-02
 -2.0321009e+00   3.0879637e-02
 -4.7013476e-01   8.2860716e-02
 -9.0637314e-01   6.1812133e-02
  3.3108788e+00   7.5576246e-02
 -1.9183581e+00   4.7398839e-02
 -3.4687822e+00   5.5338450e-02
  1.2253155e+00   8.5167170e-02
  2.9087124e+00   7.9130277e-02
 -3.1850132e-01   2.2189481e-02
 -2.3519838e+00   8.3706044e-02
  3.9578670e-01   6.7890964e-02
 -5.2323736e-02   6.8936683e-02
 -1.7598076e+00   9.5140062e-02
  1.9608228e+00   9.9202029e-02
  1.0267667e+00   7.2849274e-02
  2.8277538e+00   5.9213765e-02
  1.3358774e+00   5.1677130e-02
 -4.9424723e-02   7.5551748e-02
 -7.7308065e-01   7.0348144e-02
  1.3405300e+00   2.0838404e-02
  1.7230585e+00   8.7814689e-02
  5.4698825e-01   4.8793830e-02
 -1.5370988e+00   7.4380778e-02
 -3.0254531e+00   2.4143718e-02
 -2.8198871e-01   4.7563866e-02
  1.5117319e-01   7.7776305e-02
 -2.7465076e+00   8.0313981e-02
 -2.1105590e-01   7.1316995e-02
 -2.9981558e+00   8.6132333e-02
  2.6178961e+00   2.8928135e-02
  9.5400743e-02   5.0049026e-02
  8.0584890e-01   3.1397365e-02
 -1.8174806e+00   5.1612426e-02
  8.4760785e-01   6.5287977e-02
 -3.2583344e+00   3.8070705e-02
  2.4628401e-01   7.1166247e-02
 -3.8344548e+00   9.3452863e-02
  3.5000706e+00   3.3258926e-02
 -8.0652303e-01   7.7879317e-02
 -6.6976637e-01   4.2261943e-02
 -4.5060358e+00   5.8302876e-02
  1.2745309e+00   8.9570060e-02
  4.8996467e-02   5.1618148e-02
 -8.1127357e-01   2.1169722e-02
 -7.9811960e-01   4.5219883e-02
 -1.0716237e+00   8.5040264e-02
 -3.7780926e+00   8.2853988e-02
  9.5365626e-01   6.2273119e-02
  4.6623182e-01   9.4903350e-02
  2.0279850e-01   6.2557518e-02
 -4.4311070e+00   8.4760793e-02
 -1.3098164e+00   9.3112387e-02
 -1.9402461e+00   3.3764441e-02
  4.7810521e+00   7.2444327e-02
 -6.2322795e-01   3.2171514e-02
 -2.9793518e+00   8.3047658e-02
 -1.4881335e+00   7.3581316e-02
  4.2081809e-01   8.0121316e-02
  2.8315706e+00   7.7092804e-02
  2.0654960e+00   8.6024873e-02
 -1.1733869e+00   6.8577327e-02
  2.7889080e+00   4.1047297e-02
 -4.4834256e+00   8.5896857e-02
 -3.5864120e+00   9.6533015e-02
 -7.2575457e-02   1.4573198e-02
 -2.3348231e+00   7.6392695e-02
 -2.1598513e+00   6.7025065e-02
 -1.5050662e+00   6.7842983e-02
  1.7185668e+00   6.9096506e-02
 -6.2805021e-01   5.5205528e-02
 -9.0071671e-03   6.4058654e-02
  3.1918806e-01   6.7763582e-02
  1.8184730e+00   6.4683527e-02
 -9.5808810e-01   6.9304176e-02
  1.4496406e+00   8.9864798e-02
  3.2078512e+00   7.8499421e-02
 -6.8739867e-01   9.5522709e-02
  2.4954162e+00   8.0473639e-02
 -1.4715335e+00   8.3594710e-02
 -3.1418002e+00   3.3502772e-02
 -3.7209270e+00   5.4516166e-02
 -3.2060022e+00   5.9218962e-02
  1.2746394e+00   9.5416673e-02
 -1.6629457e-01   4.4445407e-02
 -1.1023601e-01   5.8474924e-02
  9.2550117e-01   2.1513550e-02
  3.7054341e-02   7.2386436e-02
 -1.5876907e+00   2.2686468e-02
 -8.8604641e-01   6.9901191e-02
  4.7154565e+00   9.5000945e-02
  7.3483229e-01   4.1136090e-02
  2.2898035e+00   3.4620620e-02
 -2.3332098e+00   2.7502511e-02
 -2.1412656e+00   6.3491359e-02
 -4.0901455e-01   4.9978469e-02
 -3.4760747e+00   4.7179915e-02
 -2.1182205e-01   7.0106342e-02
  2.3424046e+00   8.4954821e-02
  2.1928051e+00   9.2498258e-02
  2.9650195e+00   8.2081452e-02
 -2.1509051e+00   8.2521074e-02
 -3.3627269e+00   9.8585628e-02
 -3.2175701e+00   8.9068681e-02
 -1.7443517e-01   6.5011397e-02
 -1.8970110e+00   5.0319105e-02
 -3.1736970e+00   5.2432515e-02
  7.7648073e-01   6.7772761e-02
  3.3145709e+00   8.1009910e-02
  1.5082833e+00   3.9978854e-02
  3.4776369e-01   3.5007976e-02
 -4.7215450e-01   9.7222678e-02
 -1.9793475e-01   2.1128377e-02
  9.6342862e-01   7.4840643e-02
  3.6158116e+00   3.1281613e-02
  2.0993848e+00   7.6680519e-02
  6.3330731e+00   4.5685135e-02
  1.6114414e+00   8.4623486e-02
  8.8891822e-01   6.1927021e-02
  9.5221840e-02   8.6869903e-02
  1.3945213e-02   5.5917688e-02
  3.4955642e-01   4.9436532e-02
 -1.5228217e+00   7.7681169e-02
 -1.1603488e+00   3.5268806e-02
  2.1591096e+00   9.4488412e-02
 -8.4766060e-01   5.8939651e-02
 -3.3330331e+00   8.9219674e-02
  1.2179852e-03   5.5024963e-02
 -9.0582144e-01   2.3383660e-02
  3.0788043e+00   8.3465181e-02
 -1.9469401e-01   5.3006314e-02
  2.9290044e+00   4.7743145e-02
  1.2070818e+00   2.1329040e-02
  1.4664267e+00   6.0283165e-02
  3.5850110e+00   6.1969262e-02
  2.3295844e-02   6.7754850e-02
 -1.3128222e+00   4.8854310e-02
  4.9727675e-01   7.5385883e-02
  2.3383524e+00   4.7939952e-02
  2.0765877e+00   6.8285801e-02
  2.3284750e+00   5.8483195e-02
  3.2973654e+00   9.0443924e-02
 -9.5236784e-01   7.1722865e-02
 -1.0919201e+00   8.1196703e-02
  1.6383532e+00   4.6113621e-02
 -7.7197981e-01   4.5026049e-02
  5.4434891e+00   6.4637639e-02
 -1.2790807e+00   3.6345009e-02
 -2.6493192e+00   8.1437938e-02
  3.6573347e-01   8.8511713e-02
 -1.0830226e+00   6.4459987e-02
 -4.6945119e-01   3.2189865e-02
  8.8458228e-01   3.8255189e-02
  9.6635771e-01   8.0725580e-02
  7.4304380e+00   8.7406226e-02
  3.5359040e-02   7.8942850e-02
  9.1387612e-01   9.5448159e-02
  3.4461510e+00   9.6186996e-02
 -2.5645857e+00   6.7900933e-02
  3.1686480e+00   5.1376998e-02
 -1.7345549e+00   9.5569417e-02
 -1.1705340e+00   6.4344719e-02
  1.3553478e+00   4.9140099e-02
  5.2826810e+00   3.3459570e-02
  2.6184919e+00   6.3996583e-02
  1.8238043e+00   5.9448030e-02
  2.4453571e-01   2.3823926e-02
 -2.2836441e-01   1.9868836e-02
 -4.6147475e-01   9.6185893e-02
 -5.1026554e+00   3.3828948e-02
 -3.4966702e+00   6.6713765e-02
  2.3889761e+00   2.3885591e-02
  3.9518344e+00   9.0206757e-02
 -1.9575353e+00   6.5203190e-02
  1.1456132e+00   8.8864774e-02
 -7.8632087e-01   7.5683460e-02
 -3.4089184e+00   4.5376696e-02
 -2.1651011e+00   9.2995740e-02
 -1.8635631e+00   4.8328321e-02
 -1.1435661e+00   8.2381323e-02
  1.7232883e+00   6.8950541e-02
  6.5247923e-01   4.7995690e-02
  5.7589608e-01   6.3656375e-02
  2.1886692e+00   8.1023358e-02
 -4.1086802e-01   4.6539593e-02
  2.0005054e+00   6.4244039e-02
 -2.4799762e+00   6.0275018e-02
 -6.5248567e-01   9.7435951e-02
  1.6399007e+00   7.8972884e-02
  6.4902854e-01   4.8535321e-02
  1.2560374e+00   3.4070842e-02
 -4.0847078e-01   7.3290870e-02
 -4.8724076e-01   4.0962208e-02
 -3.1028385e+00   7.7735685e-02
 -3.7089987e+00   1.2401425e-02
 -2.1693997e+00   9.8185860e-02
  1.7182465e+00   6.3263237e-02
  2.4783502e+00   3.8845923e-02
 -2.4847167e-02   6.4545214e-02
  5.9398466e-01   3.4628909e-02
  8.5215914e-01   5.5645332e-02
  2.6470184e+00   3.4563050e-02
  1.4957130e+00   5.6583837e-02
  2.5837776e-01   3.6395244e-02
 -2.1124158e+00   8.7915823e-02
  2.7876253e+00   8.7159626e-02
  2.0960617e+00   4.0199149e-02
  6.6549867e-01   8.1431054e-02
  1.3994603e+00   9.8962724e-02
 -6.7135817e-01   7.3285304e-02
 -1.7021528e+00   3.6506813e-02
  7.5089771e-01   8.6502209e-02
 -8.9826173e-01   9.2523031e-02
 -2.4004765e+00   6.1913684e-02
 -1.2027031e+00   9.4946153e-02
 -7.6526272e-01   6.7636676e-02
  1.0990372e+00   8.0802158e-02
  5.4945683e-01   8.3229758e-02
  2.3985105e+00   8.8123538e-02
 -1.4729137e+00   9.5137149e-02
  2.1330867e+00   8.3855905e-02
 -4.8534584e-01   4.6885688e-02
 -4.7289455e-01   3.9672028e-02
 -1.3802443e+00   8.4398232e-02
  1.9568290e+00   9.7267576e-02
  2.3513969e-02   4.7017366e-02
 -1.6973623e+00   3.7296694e-02
 -7.5899798e-01   5.1981606e-02
  2.3363445e+00   2.8415101e-02
 -2.0974081e-02   6.8709455e-02
  1.0638989e+00   5.1127974e-02
  7.0353323e-01   3.8062498e-02
  2.1409717e-01   4.1186962e-02
 -8.1558710e-01   2.7025344e-02
  2.7590692e+00   4.2798698e-02
  5.4825969e+00   5.9914194e-02
 -4.3242068e+00   7.2779514e-02
  1.4361511e+00   5.0062530e-02
  4.5630342e-01   7.4998438e-02
 -7.8238517e-01   5.8761518e-02
 -7.8290778e-01   9.8982111e-02
  5.6718701e-01   5.0397702e-02
  3.2326286e+00   9.6150830e-02
 -1.6292796e+00   7.8322574e-02
 -1.7712461e+00   5.7189979e-02
 -5.8615313e+00   7.1669906e-02
  1.1063132e+00   8.0996439e-02
 -9.6076310e-01   4.6691418e-02
  1.0773890e+00   9.1451578e-02
  1.9621668e+00   2.9304767e-02
  4.0022235e+00   5.2345350e-02
  1.1012928e+00   7.6810427e-02
  1.5267837e+00   3.9898712e-02
 -2.3212445e+00   8.1009015e-02
  2.7111897e+00   6.4969182e-02
 -2.7407207e-02   5.3573940e-02
 -3.3341043e+00   8.4248833e-02
  1.1694901e+00   7.2360061e-02
 -2.5656359e+00   4.9584337e-02
 -3.0302541e+00   5.8030084e-02
  1.8647164e+00   4.1919667e-02
 -1.9104625e+00   9.0563327e-02
 -1.0542966e+00   4.1283056e-02
  1.8533601e+00   7.6805957e-02
 -3.5363279e-02   5.8120921e-02
  7.8561270e-01   7.4213684e-02
 -7.1431190e-02   7.8689203e-02
 -1.0857955e+00   9.6061610e-02
  2.6661432e-01   7.9891793e-02
  7.4288890e-02   6.7496762e-02
 -1.1965065e+00   7.6980844e-02
  2.6044621e+00   3.2016248e-02
  4.1807804e-02   7.6939464e-02
  2.8463562e+00   8.1276529e-02
 -4.8786345e+00   9.1671199e-02
 -2.6351741e-01   4.2030115e-02
  2.7259605e+00   7.0323527e-02
 -4.2889425e-01   4.0303789e-02
 -2.0745013e+00   5.0885092e-02
  7.0187392e+00   6.5324441e-02
 -3.0081832e+00   3.4411956e-02
 -3.1663692e-01   3.6533419e-02
  4.7992942e-01   4.6541203e-02
  2.0096195e+00   4.9487341e-02
  6.8483931e-01   8.2959428e-02
 -2.7925277e-01   5.5189218e-02
  4.6891389e+00   1.0000000e-01
 -9.5516562e-01   7.6698959e-02
 -1.3595881e+00   3.1188330e-02
  3.6630914e+00   4.6879373e-02
  6.7686086e+00   7.4090749e-02
 -2.7601626e+00   9.6345931e-02
 -3.2048225e-01   9.7715572e-02
 -1.0631807e+00   5.8632355e-02
 -2.0616926e-01   3.5452377e-02
 -6.1728531e-01   6.8178743e-02
 -8.5911489e-01   3.9505828e-02
 -2.1724703e+00   3.7943643e-02
 -1.2148379e+00   3.3004578e-02
 -1.2153689e+00   8.1599548e-02
  4.9904304e+00   5.5410329e-02
  1.3347403e+00   3.1240271e-02
  3.3475654e+00   8.0702938e-02
  5.5854905e-01   7.9411857e-02
 -2.1120718e+00   5.8380384e-02
 -6.5408862e-01   8.6297780e-02
  8.4249479e-01   6.1999552e-02
  6.5938115e-01   4.0845238e-02
  4.6563998e-01   3.9771978e-02
 -4.8958421e-01   9.7068198e-02
 -2.7342241e+00   8.5202336e-02
  7.3727584e-01   4.7983710e-02
 -2.7920136e+00   7.9824634e-02
 -4.3423501e-01   5.1498663e-02
 -6.0416669e-01   3.2960888e-02
 -4.7167629e-02   3.4466825e-02
  1.2759333e+00   9.1315791e-02
  9.1493541e-01   2.6468642e-02
  3.5218599e-01   7.7991612e-02
 -2.0865250e-01   9.4442390e-02
 -2.2187403e-01   6.1513461e-02
 -1.8903182e+00   4.9783628e-02
 -8.0669850e-01   7.4706890e-02
  5.3014666e-01   5.6938045e-02
  2.9900643e-01   6.5542281e-02
 -2.4343412e-01   2.3851160e-02
  1.1667944e+00   8.6831503e-02
  2.5725775e+00   3.1169552e-02
 -1.3472476e+00   5.7447914e-02
 -2.6356628e+00   3.7340589e-02
  6.3253289e-01   9.4708480e-02
 -1.4237586e+00   5.9648756e-02
  8.2990968e-01   8.2265519e-02
  1.8460486e+00   4.9744986e-02
  2.0388603e+00   8.4135316e-02
  4.8606369e-01   2.8165150e-02
 -4.8778591e-01   6.6364355e-02
 -1.9685780e-01   6.1140317e-02
 -2.6849478e-01   3.3553060e-02
 -1.4635564e+00   5.4285523e-02
 -1.8950088e+00   5.9528124e-02
 -4.8408532e-03   3.5955001e-02
 -5.3467554e-01   6.2929064e-02
  1.9125315e+00   6.0834210e-02
 -9.0082699e-01   4.8263136e-02
  1.7645270e-01   3.6588360e-02
  1.2575709e+00   7.4778646e-02
  1.2226913e+00   9.6784122e-02
 -7.2024867e-02   5.3035524e-02
 -1.3904189e+00   6.4259231e-02
  6.9968075e-01   5.0653983e-02
  2.3705025e+00   4.8595533e-02
 -4.2645457e-01   6.5155737e-02
 -1.5977674e+00   6.1948486e-02
  1.9581624e+00   9.6956387e-02
 -1.3190540e+00   9.7379409e-02
  2.3489473e+00   2.3124876e-02
 -8.2156354e-01   6.4650275e-02
  1.1458825e+00   5.1396262e-02
 -1.2409307e-01   4.6790548e-02
 -2.5401711e-01   7.3807240e-02
 -6.1348009e-01   6.7224659e-02
  9.7450703e-01   8.9255705e-02
 -1.6247593e-01   7.4267216e-02
 -6.1128145e-01   4.7725804e-02
 -1.3918113e+00   4.4021651e-02
  7.5265890e-01   2.7546529e-02
  1.6483483e+00   3.9920617e-02
 -1.9309821e+00   8.9288101e-02
  2.8594713e+00   6.3911512e-02
 -8.2664633e-01   5.9682559e-02
 -6.5712321e-01   9.1570690e-02
  1.6450541e-01   6.3363135e-02
 -4.6679574e-01   2.8040633e-02
  4.9676403e-01   6.6388197e-02
  5.0130492e-01   3.9979849e-02
 -1.5266626e+00   5.7296570e-02
 -9.1744065e-01   5.8564752e-02
 -4.0208807e+00   4.8546765e-02
 -1.4324877e-01   6.4770259e-02
  1.7494898e+00   5.4936588e-02
  2.6468897e+00   4.2246975e-02
  2.3154352e+00   6.2211651e-02
  3.3873100e+00   6.1498802e-02
  8.2397622e-01   5.6956548e-02
  7.0204310e-02   3.9361406e-02
 -6.2579113e-01   8.2219109e-02
  2.1324450e-01   2.8394351e-02
 -3.3991272e+00   5.7885420e-02
 -1.2174592e+00   3.3577662e-02
  7.4974036e-01   8.7922700e-02
 -2.0408413e+00   3.8254756e-02
 -1.4865497e+00   2.9889338e-02
  8.0769604e-01   2.5821747e-02
  2.0662413e+00   6.0985520e-02
 -2.7928033e+00   7.5575106e-02
  3.8974018e+00   6.7082047e-02
 -2.0762367e+00   4.2310920e-02
 -2.4835534e+00   9.5536254e-02
 -2.3915360e+00   3.8805898e-02
  1.6680944e+00   9.4217457e-02
 -4.5094967e-01   9.9065609e-02
 -6.6946206e+00   9.9952340e-02
  8.0274445e-01   5.5170454e-02
  2.5014658e+00   6.5301493e-02
  1.3815799e+00   3.6164340e-02
  4.7090730e-01   6.0017467e-02
  2.5063522e+00   9.0431385e-02
 -1.0665114e+00   5.8630973e-02
 -4.4365559e+00   8.5753903e-02
 -1.3072647e+00   6.2614940e-02
  1.0315543e+00   8.9414768e-02
 -2.7265124e+00   5.3311605e-02
 -1.7702513e+00   6.4288601e-02
 -1.6427302e-01   6.7487635e-02
  3.9734134e-01   7.7630393e-02
 -2.9739377e+00   4.4490054e-02
 -1.5819831e+00   7.7871032e-02
 -3.9866009e+00   5.1174298e-02
 -1.8552580e+00   8.6182058e-02
  2.6614859e+00   8.9139864e-02
 -2.0873690e+00   7.0890710e-02
 -3.0203874e+00   3.0276010e-02
 -1.9590640e+00   7.8488573e-02
 -6.4761996e-01   9.7525105e-02
  2.7718713e+00   6.2799461e-02
  2.2211478e+00   7.2327115e-02
 -1.4803244e+00   5.1266301e-02
  3.1078191e+00   5.6960523e-02
  7.0425785e-01   8.7122940e-02
  1.3776079e-01   4.6988688e-02
 -1.5410064e-02   4.3647204e-02
 -9.7915530e-01   3.5792094e-02
 -3.4278374e+00   6.7169249e-02
  6.6934550e-01   2.5269078e-02
  1.2188842e+00   5.9800681e-02
 -2.4852625e-01   6.3888647e-02
  1.5070773e+00   6.5043457e-02
  1.2289762e+00   6.5636382e-02
  8.8057518e-02   5.4673642e-02
  3.1896809e-01   6.1819002e-02
 -2.5240734e+00   5.4002292e-02
 -1.5779240e+00   2.6026504e-02
  2.0470140e+00   9.7539842e-02
 -4.0725020e-01   2.2421766e-02
  5.0279814e-01   6.7101903e-02
 -2.6658959e+00   8.2835123e-02
 -1.9937328e+00   3.7578985e-02
 -3.2795417e+00   8.1261821e-02
  4.4705658e+00   7.7324472e-02
 -2.7218468e+00   6.7456327e-02
  1.9765118e+00   2.0234382e-02
 -9.2967546e-01   7.5591348e-02
 -9.3194634e-01   7.8156248e-02
 -1.5185964e+00   7.8072831e-02
  5.4782188e-01   5.7076838e-02
  3.9351866e-01   7.2374679e-02
 -5.8595347e-01   7.9726428e-02
 -9.6090919e-01   6.9271490e-02
  4.0057292e+00   6.8790443e-02
  3.1844435e+00   4.1748431e-02
  1.2544999e+00   7.7340417e-02
 -1.4920591e+00   6.4135097e-02
 -1.1917311e+00   3.7377514e-02
  6.4218974e-01   7.6683544e-02
  9.0382671e-01   7.5026177e-02
  1.0122464e+00   3.5496820e-02
 -2.3135388e+00   8.9440860e-02
 -3.9407980e-01   6.0964487e-02
  1.8765936e+00   3.2686800e-02
  1.4367046e+00   6.1944045e-02
 -3.4020112e+00   8.2403935e-02
  5.0240707e-01   2.6151538e-02
  3.0970383e-01   5.9874088e-02
  7.7218187e-01   4.8570059e-02
 -2.9435644e+00   6.7241572e-02
  9.8008126e-01   6.6557489e-02
  4.9078307e-01   9.1552012e-02
 -1.0291121e+00   6.8869837e-02
  4.3133435e-01   9.8519318e-02
  8.9268005e-01   8.9383945e-02
 -4.4441538e+00   6.3980393e-02
  1.3141844e+00   7.2828002e-02
  4.5360637e+00   7.8855500e-02
  4.3156319e+00   8.3698682e-02
  2.7047615e+00   2.3643773e-02
  1.5006784e+00   4.6657920e-02
 -1.2508866e-01   4.4080067e-02
  1.6987890e+00   9.3839571e-02
  1.1642878e+00   5.3699005e-02
  1.5158111e-02   6.3197531e-02
  1.6221055e+00   6.6250950e-02
 -3.2766554e+00   7.4633181e-02
 -9.4441593e-01   4.7157019e-02
 -3.2884014e-01   4.2240854e-02
  1.8736700e+00   6.6309407e-02
 -9.3864763e-01   2.9887721e-02
 -2.1435440e+00   5.1373996e-02
 -1.7111877e+00   7.3002435e-02
  4.9606189e-01   6.1208270e-02
 -2.3106115e+00   8.2625099e-02
 -4.9878767e-01   4.8627492e-02
 -4.3673291e+00   7.9328179e-02
  1.1466254e+00   9.9255666e-02
 -4.2373370e-02   8.2592331e-02
  3.0239336e+00   9.4833039e-02
  1.2117711e-01   5.8184188e-02
 -1.8007010e+00   7.0223868e-02
 -2.3874528e+00   6.8585731e-02
 -2.2808282e+00   3.0457666e-02
 -1.7069728e+00   6.1103344e-02
 -1.8325721e+00   8.5777655e-02
 -3.2949638e-01   7.5777613e-02
  1.4690117e+00   5.2155316e-02
 -6.2546235e-01   5.8557317e-02
 -2.7071387e-01   3.4472212e-02
  5.0841711e-02   8.0156967e-02
  3.1678128e-01   8.9867778e-02
 -1.4145645e+00   6.3216917e-02
 -2.2228420e+00   3.1401407e-02
 -3.8552318e+00   6.2232830e-02
  3.9294634e+00   6.2427513e-02
  1.6726990e+00   9.7687423e-02
  2.1441494e-01   3.8267013e-02
  1.2508506e+00   8.8823877e-02
  2.7211508e-01   8.9491740e-02
 -2.1350534e+00   5.8220480e-02
  1.4535556e+00   4.5605898e-02
  5.6171185e-01   4.5204420e-02
  3.1798844e+00   7.8840487e-02
  1.9684839e-01   1.9374778e-02
  1.3507476e+00   9.7332187e-02
  6.0848892e-01   9.5594108e-02
 -1.0552638e+00   6.8427891e-02
  7.8373319e-01   5.1632456e-02
  5.3163624e-01   7.4724928e-02
  1.4191175e+00   7.8342341e-02
  3.6385924e-01   3.1003347e-02
  9.1282451e-01   9.8854855e-02
 -4.5026493e-01   6.1639953e-02
 -2.1716363e+00   9.8388255e-02
 -1.6575316e-01   9.3678072e-02
  1.9839116e+00   7.9970472e-02
 -1.3713674e-01   8.5434049e-02
  7.0267630e-01   4.7281958e-02
 -3.4583995e-01   4.7510259e-02
  3.3910050e+00   5.1954996e-02
  1.1629088e+00   2.8988099e-02
  6.7979516e-03   8.3508477e-02
  3.5350201e-01   9.7689293e-02
 -2.2917142e+00   9.9601641e-02
 -1.5471532e+00   9.7719565e-02
 -5.6562394e-01   9.2513770e-02
  2.6394289e+00   5.2807309e-02
  5.0771632e+00   6.3218191e-02
  2.5773795e+00   3.7943378e-02
  1.6329604e+00   4.0237155e-02
  5.4428625e-01   1.7950311e-02
 -3.7003667e+00   5.8039233e-02
 -1.8717192e+00   2.7302099e-02
 -1.5696104e+00   6.8317406e-02
 -3.4625185e-01   8.5175976e-02
 -1.6772292e+00   5.1488530e-02
  1.7675735e-01   8.2148068e-02
 -4.1717774e-01   6.5696776e-02
  1.0181404e+00   8.8448934e-02
 -7.4973214e-01   3.7027497e-02
  3.1391888e+00   8.8628471e-02
 -1.5866717e+00   6.0779803e-02
 -5.2777898e-01   6.9677189e-02
 -1.9389539e+00   5.1990218e-02
  2.1341720e+00   5.4391682e-02
 -2.6944270e+00   5.3846970e-02
  6.3856798e-01   2.0996880e-02
 -3.6182067e-01   9.6656255e-02
 -3.0174448e+00   3.7860051e-02
 -1.8494661e+00   6.4953700e-02
  5.8663851e-01   5.5373624e-02
 -1.0481844e+00   5.5425927e-02
 -5.6543237e-01   7.0126690e-02
 -3.8692887e+00   8.5267015e-02
  9.8598522e-01   5.2352257e-02
 -2.6452732e+00   4.4218060e-02
  3.4666939e+00   6.9512784e-02
 -1.3529406e+00   3.3724543e-02
 -3.1095910e-01   3.6721304e-02
 -2.5694296e+00   5.5841956e-02
 -3.5505707e+00   8.7233424e-02
 -7.4176943e-01   7.8616448e-02
  2.2275972e+00   4.5049489e-02
 -5.0080209e+00   6.7193992e-02
 -4.7547903e+00   4.4269718e-02
 -2.4732754e+00   5.5249691e-02
  1.6447566e+00   5.9705187e-02
  3.3248901e+00   6.1332714e-02
 -1.0830245e+00   3.0941831e-02
 -5.5170798e-01   8.6997122e-02
 -1.0673831e+00   8.2657211e-02
  1.3535260e+00   9.4839364e-02
 -1.1526936e+00   9.3616880e-02
 -8.9447916e-02   5.3562768e-02
 -5.1501160e+00   7.7317953e-02
 -6.5693343e-01   5.7547417e-02
 -1.0301046e+00   3.5536997e-02
 -1.0273151e+00   5.5630658e-02
  1.7163221e-02   9.7634457e-02
 -6.7111480e-01   4.8720673e-02
 -6.0253257e-01   9.3081325e-02
 -1.0101377e+00   3.8087327e-02
 -6.3426095e-01   7.7914603e-02
  1.0542910e+00   7.8103274e-02
 -4.6589360e+00   7.0683643e-02
 -2.9572911e+00   4.2456932e-02
 -2.9573576e+00   4.2834260e-02
 -8.4341758e-01   8.1223227e-02
  8.9430952e-01   3.2459244e-02
  9.6893162e-01   4.9255546e-02
  1.6187757e+00   8.4482014e-02
 -4.7409269e-01   9.0543002e-02
 -1.0754278e+00   1.0000000e-01
 -1.6116527e+00   8.8428862e-02
  9.6363956e-01   2.0823855e-02
  6.0578918e-01   1.0000000e-01
  2.6208279e+00   9.2624843e-02
 -1.5865628e-01   5.3710282e-02
 -2.8424869e+00   7.8539744e-02
  4.9392662e+00   5.1376708e-02
  7.2152883e-01   4.2167462e-02
 -1.9447840e+00   7.9807900e-02
  2.0346060e+00   7.6317154e-02
  3.8116825e+00   5.6823678e-02
 -5.5499341e-02   5.7952296e-02
 -7.4467297e+00   8.5441709e-02
 -1.4560768e-01   4.4892300e-02
  2.1776390e-01   9.8964132e-02
 -3.0587785e+00   7.9136617e-02
  3.5423183e-01   7.4536078e-02
 -1.0904967e+00   3.4734983e-02
 -4.0773582e-01   5.8010183e-02
 -1.5200597e-01   7.7351071e-02
 -1.7364215e-03   6.9795817e-02
  4.6749327e-01   7.4493118e-02
 -1.7737460e+00   7.2697483e-02
 -1.1664987e+00   7.5697258e-02
 -2.2590852e+00   4.0314369e-02
  3.0151525e+00   6.1175901e-02
  3.6056054e-01   4.2262454e-02
 -5.3070798e+00   7.5948156e-02
 -1.1882554e+00   6.7468651e-02
 -5.6356198e-01   2.9285057e-02
  2.1842723e+00   3.7869908e-02
 -1.5954736e+00   6.9672927e-02
  1.9069451e-01   9.3221530e-02
  1.5020897e+00   3.4953471e-02
  4.9065134e-01   9.1579840e-02
  1.0442168e+00   2.7946552e-02
  8.6129153e-01   7.5690024e-02
 -6.2546313e-01   2.0510269e-02
  1.2197138e+00   5.0635990e-02
  1.0488131e-01   9.6666962e-02
 -2.6743002e+00   5.0680593e-02
  1.4937415e+00   6.0878988e-02
  1.6085553e+00   9.1589466e-02
  1.2680682e+00   4.1340966e-02
 -7.8138149e-01   8.5647143e-02
  6.3271588e-01   9.8871924e-02
 -2.0443954e-01   7.3286287e-02
 -6.4670205e+00   4.1980173e-02
  8.6936998e-01   4.5182087e-02
 -3.1500406e+00   8.7889500e-02
 -7.3399866e-01   3.6509413e-02
  1.6967719e+00   2.0649914e-02
 -3.5952941e-01   8.2187682e-02
  1.1135405e+00   4.7502980e-02
 -2.6600890e+00   8.4872566e-02
 -3.2248790e+00   9.4692290e-02
 -6.4295787e-01   3.8557287e-02
 -5.1487970e-01   5.8564831e-02
 -2.5210290e+00   6.5671124e-02
  1.4147791e+00   5.4413214e-02
  1.3897245e+00   5.3198077e-02
  1.2117550e+00   6.4083517e-02
 -1.1685392e+00   7.2653115e-02
  8.3291449e-02   2.5867548e-02
  3.1659040e+00   4.9172647e-02
 -1.3308647e+00   3.6732569e-02
  1.6034732e+00   4.4830587e-02
 -1.6498964e+00   8.2924590e-02
  4.0845469e-02   9.8832667e-02
  2.5097919e+00   5.9528615e-02
  3.0829880e+00   6.4162955e-02
  1.4786007e+00   5.1443689e-02
 -1.0294260e+00   8.0764160e-02
 -1.8637772e-01   6.7053080e-02
 -4.3849602e+00   5.1993553e-02
 -1.5784099e+00   4.5558240e-02
  6.4292163e-01   6.4618193e-02
 -9.0725765e-02   5.3461589e-02
 -9.9293268e-01   3.7591569e-02
 -6.5955913e-01   9.0633824e-02
  4.4109383e+00   8.6296685e-02
  7.6864666e-01   9.4606079e-02
 -2.9797664e+00   7.8970514e-02
 -9.2819542e-01   7.3557660e-02
 -2.7480471e-01   5.2326620e-02
  1.5040952e+00   9.1960102e-02
 -1.0116897e+00   9.7395465e-02
 -2.0331855e+00   9.4227627e-02
  7.1698493e-01   5.4395467e-02
 -3.3811033e-01   6.8480194e-02
  3.7831647e+00   3.6543716e-02
 -2.0413897e+00   7.2649248e-02
 -3.5228515e+00   9.6247256e-02
  3.0552503e-01   5.6318518e-02
  7.3708224e-01   4.5793891e-02
  2.0934203e+00   7.8403331e-02
  2.7452636e-01   6.0352705e-02
  1.7937376e+00   2.4636200e-02
 -2.6479249e+00   7.2243400e-02
 -6.6571474e-01   9.5146425e-02
 -1.1152853e-01   7.1940660e-02
  2.0792016e-03   5.4089393e-02
  9.3058956e-01   6.4026065e-02
 -9.0754248e-02   3.2178544e-02
  1.6169801e+00   5.4073270e-02
 -5.0101197e-01   9.0730213e-02
  9.1421723e-01   7.0264444e-02
 -1.9717530e+00   8.4655374e-02
 -4.8662347e-01   8.7739788e-02
  1.0960815e+00   9.9700421e-02
 -6.5635710e+00   5.1866438e-02
 -3.9987472e-01   2.2044653e-02
  1.9594333e+00   7.7547021e-02
  1.8168811e+00   8.6567663e-02
 -1.5693446e-01   8.7377042e-02
  5.8848804e-01   2.9634649e-02
 -9.1822839e-01   9.2784479e-02
 -2.4694815e+00   9.4526313e-02
  4.2126253e-01   7.3012248e-02
 -3.5097927e-01   9.8734461e-02
  5.5507368e-01   8.8410713e-02
 -3.8165796e+00   3.2685786e-02
  3.2337518e+00   6.3746922e-02
 -2.2547195e+00   9.9149257e-02
  5.1747766e+00   8.9511834e-02
 -4.0088230e-01   7.2806470e-02
 -1.1853310e+00   3.1447548e-02
 -1.2812519e+00   8.5398316e-02
  9.5211262e-01   6.2529184e-02
  2.1732337e+00   3.8194392e-02
 -1.3843762e+00   6.6075481e-02
 -1.4406500e+00   1.6141864e-02
 -2.6889431e+00   8.6931609e-02
  2.3782535e-01   9.5532931e-02
  2.3057053e+00   4.7127422e-02
  3.9879315e+00   7.7864714e-02
  5.4774910e-01   6.8702005e-02
 -2.4006250e+00   4.3635987e-02
 -3.7124698e+00   2.1580426e-02
  1.9551773e+00   6.7942560e-02
 -2.6030056e+00   7.5333968e-02
  2.2186905e-01   1.3332233e-02
 -1.4806583e+00   4.4737130e-02
 -2.3936973e+00   8.1241533e-02
 -4.0825930e-01   5.7473633e-02
 -2.5935125e+00   8.0591768e-02
 -9.4784749e-01   9.3314633e-02
 -4.0800415e-02   3.1631410e-02
 -3.7642021e+00   9.3204454e-02
 -1.7149211e+00   9.8923020e-02
  5.0994021e-01   3.8116217e-02
 -3.8120997e+00   7.7030733e-02
 -2.1771169e+00   6.7441650e-02
  2.9646197e-01   2.2147829e-02
  2.6052630e+00   5.3748958e-02
 -9.9635309e-01   6.6728257e-02
 -2.0749230e+00   4.1373249e-02
  9.8219734e-01   9.4644926e-02
 -2.0450392e+00   3.6589589e-02
 -2.1983087e-03   9.3198583e-02
 -3.0254235e-02   2.1443723e-02
  3.8055992e+00   5.2291274e-02
 -3.7197793e+00   9.1072254e-02
 -7.6231700e-01   6.5968782e-02
 -3.0628026e+00   9.5188640e-02
  5.4788423e-01   9.4765551e-02
  1.0662926e+00   6.2834978e-02
  1.8014026e-01   9.0790823e-02
  1.3218781e+00   3.9461840e-02
 -1.2660401e+00   7.5921804e-02
  3.8809699e-01   7.0291445e-02
  9.0010548e-01   2.2824178e-02
 -2.5669379e+00   7.5129300e-02
 -9.7225785e-01   4.0905289e-02
  9.0613866e-01   9.2884563e-02
 -3.5560593e-01   6.4026527e-02
 -2.4348438e+00   5.4327715e-02
 -1.8325233e-01   9.6422195e-02
  2.4486144e-01   6.3745186e-02
  1.9248544e+00   8.9874804e-02
  1.4959623e-01   4.6867810e-02
  2.1705692e+00   6.4916514e-02
 -3.0448737e+00   4.3453384e-02
 -4.9989697e-01   4.9853832e-02
 -6.1317056e-01   6.4379357e-02
 -1.6068943e+00   8.5607767e-02
 -1.4547194e+00   4.7408223e-02
 -2.6711028e+00   6.2543198e-02
  1.3437512e+00   7.3627777e-02
 -2.7981421e-01   9.9633157e-02
  1.5192120e+00   4.4826720e-02
  6.9233334e-01   6.4371467e-02
 -9.8040676e-01   4.3485869e-02
 -4.5528069e+00   7.3395215e-02
  2.6243410e+00   8.6764410e-02
 -1.0100218e+00   9.5415346e-02
 -1.3331442e-01   8.8394813e-02
 -3.5822928e+00   8.5547119e-02
  2.7694982e-01   8.9424618e-02
  2.5527780e+00   7.8918949e-02
  2.6017780e+00   9.1570400e-02
  1.7084891e-01   5.8263119e-02
 -5.9045899e-01   7.2191283e-02
 -1.3129921e+00   9.9092640e-02
  2.2241647e+00   9.0837479e-02
  3.0066783e+00   1.5029161e-02
 -4.2405305e+00   2.1123990e-02
 -1.7517409e+00   9.6493609e-02
  6.5506649e-01   5.8246102e-02
  1.0333462e+00   6.0642358e-02
  1.3026266e+00   8.1715494e-02
 -3.6634648e-01   4.0290691e-02
  3.5441253e+00   8.9220114e-02
 -6.9062345e-02   7.9296522e-02
 -1.5037636e+00   5.7798866e-02
  8.1785327e-01   9.4457157e-02
  1.6731124e+00   8.3329104e-02
  2.1152830e+00   4.8667315e-02
  2.0385168e+00   7.8673527e-02
  8.3484000e-01   5.4002378e-02
 -2.8571506e+00   4.3713987e-02
 -6.6221011e-01   7.3999397e-02
 -2.1735169e-01   4.8753489e-02
  1.1937820e+00   3.5729039e-02
  1.0653727e+00   4.8172995e-02
  2.0541497e-01   9.5094107e-02
  2.4541268e+00   3.0035637e-02
 -4.0209870e+00   7.9878762e-02
  2.6422269e+00   9.2296936e-02
  2.1925604e-01   5.6561839e-02
  1.5969106e+00   5.5709876e-02