 -5.1940864e-01   4.6282094e-02
 -2.0677336e-01   1.0315041e-02
 -2.0561538e+00   1.2680761e-02
  8.1506640e-02   4.3231308e-02
  2.2405557e-01   1.2964262e-02
 -2.8792760e-01   2.7686795e-02
 -2.2251707e-01   1.7571935e-02
 -2.6430583e-01   3.1155925e-02
  2.7144532e+00   4.9807634e-03
  1.5059170e+00   1.0608998e-02
 -2.6850384e-03   4.9538892e-02
 -2.4116901e-01   4.6281829e-02
  5.4162807e+00   8.6117107e-03
 -7.9611379e-01   3.6387926e-03
  4.0225336e-01   3.2906877e-03
  1.0199788e-01   3.0745400e-02
 -3.5855967e-01   6.4641282e-02
 -2.4897774e-01   4.4907462e-02
  1.3733324e-01   3.4168355e-02
 -3.4396592e-01   2.2898508e-02
 -1.6291054e-01   4.2989779e-02
 -2.0755768e-01   3.5745218e-02
 -1.9378845e-01   9.2843235e-02
  9.5461071e-02   1.7436816e-03
  2.3769525e-01   7.0653860e-03
 -3.6577970e-02   5.6315724e-02
  2.2160503e-01   6.7528971e-03
  6.2475801e-01   2.1114040e-02
  2.0653164e-01   6.4203657e-02
  5.0710273e-01   6.2276097e-03
  5.3124290e-02   3.1486593e-02
  2.8785351e-01   2.2211943e-02
 -2.9684618e-01   6.0872275e-02
 -1.4004716e-01   3.8119767e-02
 -5.8656269e-01   3.2938465e-02
  1.8337326e-02   2.1468740e-02
  4.5930266e-02   3.4993440e-02
 -1.5536597e-02   6.5355703e-02
 -2.8538370e-01   6.0207870e-02
 -6.3557518e-01   1.7429852e-03
 -5.5491250e-02   5.5828009e-02
 -3.2596993e-01   2.6878208e-02
 -3.1775966e-02   3.5607301e-02
 -4.9501162e-02   4.7603380e-03
  3.5173099e+00   3.3927965e-03
 -3.3560628e-01   8.3428305e-03
 -9.4809383e-02   2.0704750e-02
 -1.8706262e-02   5.5922020e-02
  3.9903679e-01   2.3727404e-02
 -9.7112842e-02   6.9086790e-02
  1.0023126e-01   5.5649420e-03
 -2.2584348e+00   5.5991393e-03
  1.3697585e-01   7.6003955e-03
 -3.0263482e-02   3.3588342e-02
 -2.7365565e-01   4.0837321e-02
 -4.2033076e-01   5.1071360e-03
  2.1921311e-01   3.1244261e-02
 -2.3091047e-01   6.3481703e-03
 -2.4596243e-01   1.2389289e-02
  3.4522828e-01   7.4052133e-02
 -5.5422258e-02   4.4045523e-02
  4.2162154e-02   4.0935177e-02
  9.9266376e-03   2.5315588e-02
  7.1812756e-02   8.9162305e-02
  7.0792949e-01   3.0214235e-03
  5.9136558e-01   1.6046910e-02
 -3.3409148e-01   6.6021152e-02
  4.9406654e-01   1.5320528e-02
  5.3841645e-01   5.9771389e-02
 -3.1797031e-01   4.5749404e-02
 -2.2209303e+00   1.5675539e-02
 -7.4672633e-01   8.8640019e-02
 -1.1817242e+00   1.3021881e-02
 -3.7897084e-02   2.5286878e-02
  5.3369656e+00   9.4535314e-03
  4.0986267e-01   2.5180345e-02
  4.7979602e-01   1.7133124e-02
 -7.8615451e-01   7.2125003e-02
 -5.7606939e-02   8.3952114e-02
 -1.2736081e-01   7.1231388e-02
  3.7333730e-01   3.4924857e-03
  3.5338834e-01   3.1879146e-03
 -9.1442116e-02   1.5794491e-02
  3.2059062e+00   4.3597468e-03
  5.7792179e-02   2.8751409e-02
  1.7008551e+00   7.6308666e-04
 -9.3678683e-02   5.9339393e-02
 -1.2378128e+00   7.8376606e-03
  2.7634510e-01   9.4075073e-03
 -2.4769063e+00   5.7779817e-04
 -1.4253322e-02   2.4071302e-02
 -4.2163202e-01   5.2607607e-02
 -2.1094975e+00   3.4126674e-03
 -1.9056703e-01   2.3621039e-03
  1.3813921e+00   6.3317227e-03
 -3.9428377e-01   5.4400990e-04
  1.8779974e+00   5.6372937e-03
 -2.7007493e-01   1.6180139e-02
  4.8611787e-01   5.4667111e-02
 -8.6474493e-02   1.9223105e-02
 -3.5665080e-02   3.8942773e-02
  3.7631147e+00   1.2726499e-03
 -8.7720364e-02   4.8697762e-02
  2.5766277e-01   1.1799197e-02
  4.6594995e-01   5.9570108e-02
 -3.0765358e-01   1.4802186e-02
  6.0629129e-01   1.0748028e-02
 -1.2494186e-01   1.8913966e-02
 -4.3776664e-01   2.2157444e-02
  1.9403243e-01   2.2502594e-02
 -8.9733922e-01   4.2921908e-02
 -5.7340436e-02   5.6997541e-04
  4.4568323e-02   3.0444594e-02
  6.5433604e-01   4.1167192e-02
 -1.5702854e-01   4.1055731e-02
 -4.4803228e-02   2.2806488e-02
 -1.2453019e-01   4.8936032e-02
  4.4692650e-01   3.3014161e-03
 -1.1268426e-01   3.7371498e-02
 -2.9001957e-01   1.9959742e-02
 -3.4799075e-01   7.7163167e-02
  7.2621085e-02   7.6451175e-02
  7.5976378e-01   4.4586384e-03
 -1.8544057e-01   8.6938135e-02
  5.0228125e-01   7.8069046e-02
 -1.5150316e-01   5.0456371e-02
  7.9571335e-03   2.4918398e-02
 -2.1627471e-01   4.3924425e-02
  2.6651567e-01   5.0217267e-02
 -8.2195967e-01   9.8160088e-02
  1.0627681e-01   6.7876175e-02
 -3.0410704e-01   7.6787402e-03
  1.4283502e-02   2.5250787e-02
 -5.1209390e-01   1.5313861e-02
  4.9931441e-02   2.8940381e-02
  1.0854177e+00   6.0788440e-03
  2.1390293e+00   1.6528118e-03
 -4.6557635e-02   2.7850615e-02
 -6.2213933e-01   3.2118384e-02
  8.8619447e-01   3.1851720e-02
  2.0989917e-01   3.5137653e-02
 -2.9734275e-01   1.2426278e-02
  4.0440470e-01   4.6559416e-02
  9.4448552e-02   1.9054303e-02
 -2.0679845e-01   3.7177786e-02
 -1.5845005e-01   1.7632069e-02
  9.6166067e-02   8.4605709e-02
  6.7643505e-01   2.3385739e-02
 -5.1785135e-01   5.3335015e-02
 -4.3443999e+00   3.8252899e-03
 -5.1824182e-01   3.4851447e-02
 -6.2004149e-01   1.1838975e-03
 -3.0046783e-02   4.2130247e-02
 -1.0789514e-01   8.9208089e-02
  1.3566959e-02   1.3200679e-02
  1.0125817e+00   1.3815819e-02
 -5.2333224e-01   9.9814974e-04
  1.6693133e+00   1.8555906e-02
 -4.0082723e-01   4.2571328e-03
 -6.5691411e-02   1.7355882e-02
 -1.6590859e+00   7.5557632e-03
 -2.1787706e-01   7.2728992e-03
 -1.9012839e-01   4.8654620e-03
  5.7599884e-01   1.2595640e-02
  2.4813853e-01   5.9476543e-02
 -4.1202813e-02   7.2491981e-02
  2.2792892e-01   7.7889040e-02
  3.1631064e-01   1.8575286e-02
  1.8327008e-01   2.1693384e-02
 -1.6429943e-01   2.2307416e-02
  2.9490875e-02   9.8348416e-02
 -1.6036209e+00   3.6858398e-02
 -1.8681423e-01   2.8485410e-02
  5.6110352e-01   4.3596659e-02
  1.8718329e-01   3.1453568e-02
  2.5329259e-01   8.9461096e-03
 -9.6700966e-01   6.5547712e-02
 -1.5120710e-01   4.4600721e-02
  1.5733913e+00   1.1977226e-03
 -1.5602968e+00   5.9434357e-03
  1.2663604e-01   1.8346228e-02
  8.1231701e-01   9.3061971e-03
 -4.8348436e+00   4.9129454e-03
  2.9475072e-01   4.8772033e-02
  5.6017143e-01   1.7800138e-03
  4.7435534e-01   6.7023329e-02
  3.1388414e-01   3.3382347e-03
 -2.2832325e-03   1.1930692e-02
  2.6721767e-01   4.9071331e-02
  2.8351226e-01   3.6015853e-02
  2.8182542e-02   2.3832871e-02
 -2.7739879e-01   1.4015383e-02
 -1.1043619e+00   3.4773864e-03
  1.1299424e+00   1.4046461e-02
  3.2279801e+00   3.0654487e-03
 -3.9420761e-02   2.3695877e-02
  3.3869895e-01   2.7689081e-02
  1.1239430e-01   2.1835330e-03
 -3.8277760e-01   4.5561278e-04
 -2.8269008e-01   9.6246619e-03
 -5.6329522e-02   6.0808767e-02
  1.3809679e-01   3.6537368e-02
 -2.7644297e-01   3.6933575e-02
 -3.9421758e-01   1.3172619e-02
  1.8363574e-01   1.6934816e-02
  2.9549332e+00   3.3279601e-03
  3.1026143e-01   4.9660269e-02
 -3.6528316e-01   7.0513207e-03
 -8.3272427e-02   3.8109105e-03
 -1.4563711e-01   1.6828520e-02
 -1.0577549e-01   6.7627966e-02
 -7.8293133e-01   1.0604386e-02
 -3.7784915e-02   3.6624223e-02
  5.5605990e-01   3.0425202e-02
 -4.6813551e-01   5.6890067e-02
 -6.4587942e-03   1.6806761e-02
  2.9826075e-01   1.4214866e-02
  6.4308643e-03   2.3799514e-02
  1.4938991e-01   2.6388882e-02
 -8.5652190e-01   8.1275153e-04
 -1.0807838e+00   4.0552448e-02
  3.9189279e-01   7.4377574e-02
 -2.4656899e-01   8.0413083e-03
  2.9717295e+00   1.2221794e-02
  3.4358811e+00   2.0315924e-03
  1.6342112e-01   3.2464303e-02
  5.3626376e-01   1.0137662e-02
 -4.8557162e-01   3.5128086e-03
 -6.4044505e-02   6.9476143e-02
  3.6757737e-02   9.1502052e-03
  2.1130794e-01   5.8393624e-02
  4.8490635e-01   6.3629225e-03
  4.7952197e-02   9.2451960e-02
  4.6292424e-01   2.9881323e-02
  7.1494472e-01   2.1641761e-02
 -2.5216159e-01   1.2689199e-02
  9.5087397e-01   3.8575970e-02
 -2.9445109e-01   3.5742656e-03
  2.2180481e+00   8.6977391e-04
 -2.5111735e-01   9.9604450e-02
 -1.8628503e-01   4.0523220e-02
  9.3426722e-01   6.9335662e-02
 -9.5407806e-02   6.9286458e-02
 -2.1629576e-01   8.8816680e-02
  4.9234879e-01   2.3755141e-02
  7.3976272e-01   3.7502009e-02
 -1.3075683e-01   2.7307509e-02
 -1.0781848e+00   1.0765085e-02
 -9.8796082e-01   1.3167428e-02
  6.3630476e+00   2.6170688e-03
  3.5468061e-02   4.3040302e-02
  3.5309437e-01   2.5463426e-02
  1.8556334e-01   3.4217075e-02
 -1.8434066e-01   1.8312525e-03
 -6.3412660e-01   1.5918653e-02
  4.1509219e-02   8.6969149e-04
 -2.6905450e-01   1.8580602e-02
 -3.1262451e-01   3.2866415e-02
  1.3605675e-01   8.1845373e-02
  4.3254614e-01   2.6634332e-02
 -3.3342838e-01   3.4870878e-02
  9.0328312e-01   9.5449615e-04
 -4.8196647e-01   6.6092603e-02
  9.8517634e-02   6.5332249e-02
 -1.8399518e+00   2.0018891e-02
 -2.9716974e-01   5.5863466e-02
 -1.6112682e-01   5.0257072e-03
  2.6992238e-01   8.0468208e-03
  6.9963276e-01   1.5562001e-03
 -4.1222490e-02   4.3284789e-02
 -3.3323243e-02   5.2175507e-02
 -4.1295004e-01   1.4128502e-02
 -1.0297613e+00   8.1163626e-03
  9.1399223e-02   3.6296405e-02
  1.0160362e+00   1.0970246e-02
  5.4924387e-01   9.2179663e-02
 -5.1658684e-01   4.4517912e-02
  4.7690150e-01   8.2231816e-03
 -2.0750718e-01   1.2149322e-03
 -1.0991102e-01   1.9840527e-02
 -4.1291933e+00   1.2797477e-03
 -9.6154559e-01   2.3443995e-02
 -4.3218246e-01   1.4575178e-02
  3.3445048e-01   7.8932475e-03
 -3.9634073e-01   9.9227168e-03
  2.0594944e-01   3.0232981e-02
  4.4963202e-01   1.5279384e-02
  1.1614198e-01   1.4170827e-02
  8.2630038e-01   2.4220801e-04
  3.4932294e-01   3.4047915e-03
 -2.3065692e-01   3.5262180e-03
 -7.8449458e-02   2.7212899e-02
  2.1180665e-01   9.3420986e-03
 -6.4632887e-01   1.2883937e-02
 -5.9004638e-02   8.9405756e-03
 -1.6219959e-01   4.4161171e-02
 -1.0876179e+00   4.6739351e-02
 -7.0611167e-01   3.9832883e-02
 -1.5774658e+00   8.8904994e-03
 -3.6470112e-01   2.9287377e-02
  9.8170616e-02   1.5594831e-02
 -1.2355568e-02   5.6167789e-02
  3.5209462e-01   3.2676063e-02
  7.2154737e-01   9.0813756e-02
 -5.3423023e-01   1.7958846e-02
 -4.6102640e-01   3.4686234e-02
  2.1399980e+00   6.7228954e-03
 -2.9123837e-01   2.4678772e-03
  3.5269773e-01   9.5720990e-03
 -7.4964470e-01   2.2093596e-02
 -3.1549481e-01   3.5027865e-02
  3.1044099e-01   3.0801056e-03
  1.0131688e-01   3.2694317e-02
 -3.4552518e-01   2.3897788e-02
 -6.1651009e-01   5.0791759e-02
  1.8423426e+00   1.3257602e-04
 -1.4941753e-01   7.6448987e-03
  2.4071866e-01   9.3852371e-02
  1.4430406e+00   4.2987114e-04
 -1.2946041e+00   1.4409398e-02
  2.6635921e-01   8.5726626e-02
  6.3708560e-03   5.4727316e-02
 -2.0355656e+00   4.4904042e-02
  1.4242512e-01   4.9086638e-02
 -1.5910178e-01   1.4185183e-02
  5.4941499e-01   5.5694049e-03
 -9.3240917e-01   5.7491731e-02
  2.1970430e-02   2.6646061e-03
 -6.1007512e-01   2.9292502e-02
  1.4334931e+00   8.7044640e-03
 -4.0138736e-01   5.6797326e-02
 -9.7216213e-01   7.5268798e-02
 -6.7088217e-01   4.3223803e-03
  2.9993379e-01   1.3575141e-02
  4.2366302e-03   2.9600741e-02
  1.8806832e+00   9.7530872e-05
  3.5437877e+00   1.6593999e-03
 -1.3208252e-01   3.7660919e-02
 -6.2340015e-01   4.0933032e-02
  6.6091800e-01   1.0888394e-02
 -4.9685475e-01   7.7389456e-02
 -8.0512142e-01   4.1632876e-02
  9.9247225e-02   5.0198026e-02
  3.5827745e-02   5.8171940e-03
 -1.2744842e+00   4.8054051e-02
 -2.3417631e-02   1.8033361e-02
  3.3909816e-02   5.5041157e-02
 -9.2755681e-01   4.3671904e-03
  3.4132621e-01   3.9223850e-02
 -6.5542197e-01   5.2794322e-02
 -2.9252907e-02   2.5081566e-02
 -6.8686938e-01   7.2958977e-03
  4.4464511e-01   2.1862891e-02
 -2.1410642e-02   1.7218998e-02
 -3.0173227e-01   3.6023714e-02
 -4.1519234e-01   6.4331844e-02
 -1.9135573e+00   1.2664762e-03
  8.2282525e-01   5.6407910e-02
  7.2960369e-02   3.0881938e-02
  1.4891551e+00   6.3251513e-03
  2.7548271e-01   4.2208027e-02
  6.9083953e-03   3.0171826e-02
  3.0763513e-01   1.5396490e-02
 -5.1520300e-01   3.3782001e-03
 -1.8430501e-01   1.8873261e-02
 -4.9401629e-01   7.1934380e-02
 -3.5802345e+00   1.6302802e-03
 -3.8213429e-01   1.8930098e-02
 -6.8640578e-01   5.4298561e-02
 -1.3489712e+00   3.2454543e-03
 -8.0652589e-01   1.6154170e-02
  4.3431008e-01   3.3563722e-02
  3.1258687e-01   4.4473514e-02
 -1.3882122e+00   2.3991882e-03
  6.0780180e-01   5.5700682e-02
 -7.2903705e-01   6.9299787e-02
  1.7791524e+00   1.4993030e-02
 -1.3066021e-01   1.9495685e-02
  1.0218230e-01   5.5956248e-02
 -2.5612789e-01   7.7663679e-03
  1.4261098e+00   9.0212245e-03
 -3.0616486e-01   7.3139176e-02
  1.7037522e+00   3.6331627e-03
  5.5675387e-02   2.6311882e-02
 -8.2038873e-01   1.9230351e-02
 -4.1059306e-01   2.9704165e-02
  3.8250103e+00   1.0646314e-02
  1.4284743e+00   2.5227063e-03
 -1.6506961e-01   1.8055137e-02
 -6.9594693e-01   7.2801311e-04
 -3.1833954e+00   5.5035902e-03
 -2.4903052e-01   3.1289976e-02
 -4.0702403e-01   9.7390832e-03
 -3.1582560e-02   1.0040786e-02
 -1.3146987e+00   6.0845995e-03
  1.1846429e-01   5.9297621e-02
 -4.0419560e-02   2.3894791e-02
 -2.0699516e-01   3.5841450e-02
  3.4915137e-01   8.8128060e-02
 -6.5568769e-01   3.7423600e-02
  1.4643392e-01   7.7247076e-02
  7.1675533e-01   2.8236415e-02
 -1.2081927e+00   6.7474842e-02
  1.3495831e+00   1.2279218e-02
 -1.3899299e+00   2.9596027e-03
  3.8451993e+00   1.8230575e-03
 -2.4201325e-01   1.9462049e-02
  8.1815906e-02   4.5605659e-02
 -6.4846501e-02   8.0077775e-02
  6.8766218e-01   4.1326251e-02
 -7.0162451e-01   3.3234104e-03
  7.6079679e-01   1.2248644e-05
  1.1659720e+00   2.4225307e-03
  1.0942427e-01   3.2405484e-02
  4.4773230e-01   2.2978595e-02
 -2.5918376e+00   2.0569567e-02
 -8.6899035e-02   1.4248988e-02
  8.3777529e-01   2.4465833e-02
 -4.3282425e-01   7.3125571e-02
  5.2826172e-01   3.2575664e-03
  6.8875712e-01   8.6671486e-02
  7.7054180e-02   3.7336912e-02
 -1.4258979e-01   4.1570179e-02
 -6.8813676e-01   8.2901590e-02
 -9.1935736e-01   4.2021126e-04
  2.2317342e-01   6.2244657e-02
 -3.1782312e+00   6.8994989e-03
  9.9754608e-01   1.4169465e-02
  8.6315498e-02   3.1906150e-02
 -1.3161767e-02   6.4109944e-02
 -1.0846046e+00   2.9670507e-02
  2.9549974e-01   3.0298788e-02
  4.0762749e-01   4.8238579e-02
 -1.2731114e-01   2.6148381e-02
 -9.2610359e-01   1.6284088e-02
  2.0424336e-01   3.4308728e-02
  1.2998544e+00   8.3216606e-03
 -8.6577430e-02   5.8260124e-02
 -8.7632793e-01   2.9700669e-02
  2.7936414e-01   3.9442450e-02
 -1.2374848e+00   8.2973484e-03
 -1.5774930e-01   5.6247329e-03
  7.5602569e-02   2.2451572e-02
  2.6957572e-01   3.1898100e-02
  1.9547427e-01   3.6750885e-03
 -8.3651894e-01   5.0685266e-03
 -4.0397409e-01   4.0093280e-02
  1.9056953e-01   8.5670024e-02
 -2.4044441e-01   5.0260946e-02
 -1.0696033e-01   1.6547875e-02
 -4.3088254e-01   5.8292835e-03
 -9.7843665e-01   4.1762395e-03
  1.9678900e-01   6.8791054e-02
 -1.0147787e+00   1.0693362e-02
  8.6439952e-02   3.4643147e-02
  3.9586243e-01   5.6572650e-02
  1.4280514e+00   6.9580302e-02
 -3.5860866e-01   7.6019280e-02
 -1.2097918e+00   6.3574940e-02
  2.9163765e-02   6.7239651e-03
  8.8492411e-01   7.0533767e-02
 -6.8531208e-02   7.4188150e-02
 -5.8431464e-01   3.5234675e-02
  2.3229219e-01   6.7332372e-02
  9.7101547e-02   6.2906697e-02
  7.8848410e-01   1.5099375e-02
 -8.3854246e-01   1.1480583e-02
 -2.1324466e-01   3.7832368e-02
  1.9567597e-01   1.9311726e-02
 -2.9065987e-01   3.3934772e-02
  1.8670627e+00   4.5219086e-02
  3.9982438e-02   4.9854785e-02
 -7.7448815e-01   1.8465908e-02
  4.3286558e-02   2.2034995e-02
 -3.8199062e+00   5.9646554e-03
  3.3352846e-01   1.3585510e-03
  6.6537052e-01   4.8347689e-02
 -8.9752704e-01   1.8686108e-02
 -7.0852679e-01   4.3420964e-03
  7.3458946e-01   2.8761107e-02
 -4.2857599e-01   5.3192433e-02
  3.4798092e-01   8.5007548e-02
 -2.0879924e-01   8.7730311e-02
  9.8928347e-02   5.5615450e-03
  6.4999305e-02   7.2316485e-03
  4.1753389e-02   9.8555014e-02
 -6.8399531e-01   2.0052049e-02
 -2.5505117e-01   2.7693026e-03
  3.5476319e-02   2.2103639e-02
 -2.3429067e+00   1.3558941e-03
 -9.6419215e-02   3.2237530e-02
  1.2874490e-01   2.2612834e-02
 -6.9251627e-02   5.2071270e-02
  5.2769977e-01   4.5914561e-02
  9.3335801e-01   1.2909533e-02
 -8.8347667e-01   4.3794252e-02
  1.5441991e-01   6.4684004e-02
  2.9421532e-01   2.0555744e-02
 -6.4650691e-01   9.8237218e-03
 -1.6698398e-04   2.5056638e-02
 -6.2223934e-02   2.3700849e-03
 -6.1208043e-02   1.6887527e-02
 -5.1754837e+00   4.3514930e-03
  6.2978357e-01   1.5543367e-02
 -1.2500573e+00   8.1548262e-03
 -5.8093446e-01   9.7639654e-03
 -1.8035759e-01   2.1295935e-02
 -1.0281354e-01   2.8848527e-02
 -9.3701988e-01   7.5047859e-03
 -4.5200434e-02   3.4230869e-02
 -9.1060376e-01   3.8474482e-02
 -5.6125507e-02   6.6145644e-02
 -1.8340389e-01   7.7156834e-02
  1.1104774e-01   5.9106741e-02
  3.1177142e+00   4.6353908e-03
 -3.8251609e-01   4.3152333e-03
 -1.9454986e-01   2.2464354e-02
  1.1359903e-01   1.4363657e-02
  2.9176387e-01   4.4680713e-03
 -8.8895041e-01   2.2387400e-02
  4.8317605e-01   1.5441025e-02
  7.4163377e-02   5.7312092e-03
 -3.5798940e-01   1.8229712e-02
 -3.1616054e-03   4.8022691e-02
  1.7547190e-02   1.0612031e-02
  2.0043923e-01   4.1276436e-02
  1.8391010e+00   5.4443027e-03
 -2.7807719e-01   1.4456349e-02
 -2.0670424e+00   8.4997335e-04
 -2.4042554e-01   3.6649749e-02
 -1.1814846e+00   2.0135818e-02
  4.0175033e-01   2.0168535e-02
 -5.1341116e-01   2.4796526e-03
 -1.5670602e-01   1.5735867e-02
 -1.0736471e+00   4.3631006e-02
 -6.9217885e-01   2.3018646e-03
 -5.0682193e-01   4.1752242e-02
 -2.4302300e-02   2.7829101e-02
 -3.8627183e-01   4.7730017e-02
 -3.0259180e-03   1.2774980e-02
 -6.6007161e-01   1.4846736e-02
  1.5203539e-02   1.5896684e-02
  6.9929130e-02   3.2954305e-02
 -1.0021449e+00   3.7320431e-02
 -7.4944437e-01   6.4113024e-03
 -2.0483199e-01   3.4127627e-02
  3.2859361e-01   2.2689383e-02
 -6.1436218e-01   5.8417089e-02
  8.0009941e-03   7.2300233e-02
 -1.5879630e+00   7.2885412e-03
 -1.1955237e+00   2.7285570e-03
 -6.6616273e-01   3.9575812e-03
 -1.6149302e-01   1.3968888e-03
 -5.6893122e-01   9.0977050e-02
 -2.7176318e-01   7.2546132e-02
  8.5022569e-01   2.1755602e-02
  6.8388190e+00   1.0107314e-03
  4.8441812e-01   2.3347195e-02
  7.9805535e-01   1.8205147e-02
  2.6634576e-02   2.6790885e-02
  8.3633798e-01   1.4692154e-03
  2.3098375e-01   3.8251489e-02
 -8.4868908e-01   2.9376416e-02
 -2.2054806e+00   1.3407220e-03
  4.0739068e-01   2.2397667e-02
  1.4913088e-01   6.8919405e-02
  1.5174407e-01   2.6384497e-02
  3.9105880e-01   1.0737157e-02
  1.2794790e-01   4.3883279e-02
 -6.2616929e-02   2.0750314e-02
  3.5225320e+00   1.8062951e-03
  1.5258092e+00   1.0077171e-02
  1.1396548e+00   4.2695042e-02
  5.2675295e-01   4.1314524e-02
 -2.8062490e-01   3.8272750e-02
 -3.8527435e-01   3.7963524e-02
 -3.1610784e-01   6.5814443e-03
 -1.5753457e-02   2.7407061e-02
 -3.4350738e-01   3.4489919e-02
  1.1819917e+00   1.2468293e-02
 -1.2736287e+00   5.4700021e-02
 -1.9079484e-01   5.3731743e-02
 -1.1248785e+00   4.3641934e-03
  5.7802584e-02   3.0899610e-02
  2.8422937e-01   1.3043210e-02
  4.5470104e-01   1.4679943e-03
 -3.2126033e-01   9.2633180e-03
  1.5677069e-01   8.8471837e-02
  5.2525990e-02   1.1925492e-02
  2.4099180e-01   2.8127110e-02
 -1.7303019e+00   2.8124251e-03
 -9.4362938e-01   3.8994607e-02
  3.3297729e+00   8.1344200e-03
 -4.8761824e-01   3.1586888e-03
  1.8276900e-01   4.0019833e-02
 -2.3418906e+00   5.0327636e-04
  2.3932818e-01   5.3779438e-02
  1.0950390e-01   6.3475132e-02
 -2.4983580e+00   2.8814473e-03
  1.2979552e+00   4.5775883e-03
 -2.3096214e-01   5.7098798e-02
  2.7399468e-01   5.5258859e-02
  9.0981171e-02   1.7185174e-02
 -2.2500503e-01   7.0251539e-02
  7.5142831e-01   2.2431933e-03
 -1.7841607e-01   1.5449509e-02
  3.6219254e-01   1.6996067e-02
  7.7942473e-01   3.3581331e-02
 -1.1878408e-01   5.6670368e-02
 -2.4033675e+00   6.1414451e-03
  9.7984070e-01   7.4521070e-03
  4.9956968e-01   4.2425882e-04
  1.0374067e+00   4.6433888e-02
  1.1282836e+00   1.5787514e-04
 -2.1788768e-01   7.4361295e-02
  4.0028896e-02   2.0578060e-02
 -9.9732399e-01   7.1293473e-02
  3.5233967e-02   2.8570531e-02
  3.1461593e-02   1.8900489e-02
 -6.0167689e-02   1.5025840e-02
  6.4636314e-01   5.9865927e-03
 -2.2406526e-01   3.4916312e-02
 -1.8797204e-01   7.0896506e-02
 -8.4175503e-01   5.6951009e-02
 -8.7202244e-02   5.9368212e-02
 -1.9042401e+00   4.1597006e-03
  5.1943874e-01   4.2037364e-02
 -3.1117126e-02   4.4564255e-02
 -4.4173270e-01   7.8550659e-02
  5.2733624e-01   1.0012109e-02
  5.5807639e-02   2.5796549e-02
 -3.7597124e-02   9.8794416e-02
 -7.0464596e-02   2.6734004e-02
 -4.9453303e-02   4.2604722e-02
  2.3582267e-02   1.2680962e-02
  8.7130547e-02   2.1914424e-02
  7.3563583e-02   3.7291076e-02
  2.9486647e-01   5.6597013e-02
  1.8232128e-01   8.8455848e-02
  1.6235290e-01   2.0565789e-02
 -2.2692229e-01   6.1185002e-02
  8.5803246e-01   1.2518935e-02
  2.5411543e-01   7.7101402e-02
 -2.6575513e-03   1.5927499e-02
  8.0333942e-01   1.0495529e-02
 -1.6869385e+00   3.4511677e-04
 -4.0725698e-03   2.9547123e-02
  7.5074553e-02   2.6088727e-03
  1.6459876e-01   1.3524089e-02
  1.3798599e-01   4.3012381e-02
 -2.1770618e+00   3.1605411e-02
 -1.5943705e-01   2.8108211e-02
 -1.5934694e+00   5.0516496e-03
 -4.7107714e-01   3.1638719e-02
  5.4162338e-02   1.3595426e-02
 -8.1997329e-01   1.4607405e-02
  3.8031006e-01   9.8022576e-03
  5.4500017e-02   2.0347733e-02
 -1.3052877e+00   1.8486504e-02
  3.2538527e-01   1.8015405e-04
 -1.1856734e-02   1.6460961e-02
 -3.6252126e-01   2.3889659e-02
 -2.0718943e-01   2.4350576e-02
 -1.2407225e-01   9.7982995e-02
  6.2376887e-02   5.2995771e-02
 -2.7071467e-01   7.4294163e-03
 -1.6522787e+00   2.0554915e-02
 -1.4427748e-01   5.9955154e-02
 -4.7300324e-01   7.5659445e-03
  5.7446831e-01   8.1321567e-02
 -9.2091244e-01   1.9641809e-02
  1.5877736e-01   2.8038245e-02
 -6.3965619e-01   7.6507302e-03
  2.6724213e-01   2.6016569e-02
 -1.7218950e+00   9.6182295e-05
 -3.7364468e-02   4.6769269e-02
  3.3494782e-01   3.3056673e-02
 -3.2061473e-01   5.2160300e-02
  2.2795569e-02   4.6441354e-02
 -5.0369549e-01   2.7595457e-02
 -5.1501399e-01   2.9449387e-02
 -1.0971193e+00   1.9546025e-04
 -3.0972254e-02   6.5724673e-03
 -2.9413927e-01   4.7200818e-02
 -1.3971494e-01   6.6392444e-02
  6.5535569e-01   1.7584387e-02
  7.4057817e-01   2.1708151e-02
 -1.6962178e-01   3.2393318e-02
 -5.1902080e-01   5.3587254e-02
  1.0415179e+00   1.4333644e-02
 -4.7842745e-02   3.2280207e-02
 -2.3572415e-02   5.9727207e-02
  2.1289355e-01   5.4044846e-02
 -4.4474438e-01   2.7010230e-02
 -1.4470916e+00   4.9623621e-05
  1.0636579e+00   9.8987013e-02
 -1.5880620e-01   1.7489230e-02
  2.3862262e-01   5.6916382e-02
 -2.1772897e+00   1.5647650e-03
 -1.4270295e-01   7.6221310e-02
  1.0953531e-01   1.6617987e-02
  8.2278216e-01   1.3776911e-02
  4.6653047e-02   2.0267304e-03
 -3.4737155e-01   1.6361197e-02
 -1.9223341e-01   4.4531271e-02
  1.0733397e+00   5.7370104e-02
  3.4327638e-01   5.1973276e-03
  3.0219629e-01   2.5938325e-02
  1.1854330e+00   2.0953141e-02
  2.2648807e+00   1.4448292e-02
 -1.1673828e+00   2.6486674e-03
 -1.0306955e-01   2.5041277e-02
  2.1685078e+00   9.5826061e-04
  1.3767727e-01   2.6525689e-02
 -5.1245666e-01   2.7361020e-02
 -8.8677490e-01   5.7099316e-02
  2.5901902e+00   1.1122210e-03
  3.4938046e-01   9.5037676e-02
 -1.0498683e+00   5.6480598e-03
  6.3989705e-01   6.6030823e-04
 -9.6623367e-01   1.3482618e-03
  1.5707761e-01   6.0496248e-02
 -4.5158036e-02   6.0985811e-02
 -1.0155261e-01   5.1602274e-02
 -2.6972035e-01   3.1244520e-02
  2.4871065e-01   7.9143770e-02
  1.1914806e-01   7.4895793e-03
 -1.2759701e+00   1.8026972e-02
  3.0053291e-01   8.2977183e-02
 -5.5274159e-01   3.9801292e-02
 -1.2794690e+00   6.5257933e-05
  2.2223033e-01   5.0314821e-02
 -9.5758480e-01   8.6931866e-03
 -6.4525871e+00   9.2390915e-03
  6.5182112e-02   1.0797515e-02
  1.8191746e+00   2.0410141e-02
 -8.5148528e-02   2.8784376e-02
 -1.5404581e-01   1.2663865e-02
  3.2485399e-02   4.1184217e-02
 -3.7597647e-01   8.2439110e-02
  5.2660388e-01   3.5868064e-02
  8.6785890e-03   8.5308865e-02
 -2.2431667e-01   6.4276837e-02
 -2.9630750e-01   8.6164728e-02
  6.7125982e-01   4.4812609e-02
 -1.3878460e-01   2.1847859e-02
  1.9512321e-01   4.4608027e-02
 -1.5927118e-01   3.3993423e-02
 -2.0571265e-01   1.0684240e-02
 -8.4903128e-02   1.0444124e-02
  2.2581337e-01   6.2867096e-03
  6.7479713e-03   1.9181026e-02
 -8.4838796e-01   3.2387443e-02
 -1.8055286e-01   2.3616090e-02
  9.3499458e-01   1.5520213e-02
  2.4856620e-01   2.8142689e-02
  1.5313587e+00   6.6337490e-04
  3.3640832e-01   1.9325385e-02
 -5.6236327e-02   6.7044864e-03
 -5.4785824e-01   1.0596805e-03
  5.4163510e-01   1.6585497e-02
 -8.0896139e-01   6.3465640e-02
 -3.9968741e-01   1.4262630e-02
  1.5347077e-01   3.4789827e-02
  2.1754701e-01   3.4833584e-02
 -4.6690759e-01   2.8375670e-02
 -3.4855169e-01   5.3014796e-02
 -1.7944741e-01   4.7030158e-02
 -1.4585754e-01   1.6565055e-02
  3.4296161e-01   5.0943192e-02
  8.6737478e-01   1.2772684e-03
 -5.6981653e-01   8.3533424e-04
 -1.5398284e-02   2.2395827e-02
  6.2084568e-01   3.6323629e-02
 -6.2635697e-02   2.1142207e-02
  4.7595844e+00   4.9575185e-04
 -3.6754867e-01   4.0629391e-02
  2.1509787e-02   5.3302623e-02
 -8.1319964e-01   5.7683415e-03
 -1.0285678e+00   1.1381438e-03
 -4.4050565e+00   1.9970484e-02
 -2.2891765e+00   3.8799644e-03
  3.6565196e-02   2.5747059e-02
  1.3255873e+00   1.5402975e-02
 -5.2216820e-02   5.1271468e-02
 -3.9302507e-01   5.1735872e-03
  2.1513422e-01   9.9644996e-03
  2.5821033e-01   1.2453061e-02
  2.6892158e-01   8.7101780e-02
  2.3262080e-02   6.4315051e-02
 -9.2849129e-01   6.6086003e-03
  2.2549865e+00   1.6971068e-02
 -4.5809695e-01   8.8762119e-02
  3.2527772e-01   2.6714079e-02
  2.5397992e+00   3.3600114e-03
 -1.0310557e+00   9.3485147e-02
  1.5240842e-01   4.8684873e-02
  3.0055398e-01   1.7150436e-02
 -4.7927558e-01   4.9493399e-02
  8.6453927e-01   1.2011752e-02
 -2.9220277e-02   4.0180363e-02
 -1.3069528e-01   3.1717725e-02
 -7.5982630e-01   3.4326494e-02
  6.5212071e-01   6.9543039e-03
 -1.6384925e-01   7.9381227e-02
  4.4932377e-01   5.2584879e-02
  1.8498161e-01   2.8191460e-02
  5.1946431e-01   1.2658150e-02
 -3.8564813e-01   8.3468910e-03
  6.9718814e-01   3.0183390e-02
 -1.5872657e-01   3.8646463e-02
 -2.1195924e-01   6.5922581e-02
 -3.2423236e+00   7.1540498e-03
 -3.4846255e-01   4.5381408e-02
  1.1960283e-02   3.0498529e-02
  3.0913493e-01   2.2094935e-02
  4.8438221e-02   6.5525986e-02
  8.3692408e-01   1.9528450e-02
  3.5384600e+00   3.3896770e-03
 -8.7262940e-01   7.7326849e-02
 -6.4748041e-02   2.1510672e-02
  4.0505391e-01   1.0942339e-02
  2.6954332e-01   6.6446938e-02
  4.6242818e-01   4.6994224e-02
 -3.9417183e-01   7.1485393e-02
 -4.4098717e-01   4.6553627e-02
  2.4469118e-01   7.1683794e-02
 -2.4646935e+00   1.5221690e-02
  8.3647668e-02   1.9765359e-03
 -2.2671664e-01   4.0910147e-02
  3.9841259e+00   1.6164279e-02
  5.7493919e-01   1.4275936e-02
 -1.0820011e+00   4.7518020e-03
  9.9412397e-02   1.9436918e-03
 -5.3041393e-01   6.0524335e-03
  7.6725173e-01   1.9716525e-02
 -5.4140234e-01   2.0616878e-02
 -8.5517776e-01   5.6267246e-03
  4.4157562e-01   7.7628084e-03
 -1.2954179e+00   8.3189514e-03
  9.3177713e-02   1.1789472e-02
 -1.1121151e+00   2.5820918e-02
  8.4689718e-01   2.3931959e-03
  1.4978137e+00   6.7851618e-03
 -4.0115389e-01   1.1603648e-02
 -3.4905568e-01   1.4852989e-02
  6.9271839e-01   4.4186734e-02
 -5.1263785e-01   3.4366534e-03
 -1.4116993e+00   2.0560184e-03
 -6.8350649e-01   2.5867863e-02
  2.2659723e-01   9.6672527e-02
  7.0629930e-01   2.6236683e-02
  9.0889201e-02   2.2106623e-02
  2.0506093e-01   6.1230991e-02
 -1.7663780e+00   6.6043967e-03
 -2.2737160e+00   1.2387244e-02
  1.6166069e-01   7.0554070e-02
 -5.5545844e-02   8.3439730e-02
 -2.8163213e-01   1.8395318e-02
 -5.8870524e-01   1.3533757e-02
  6.2128520e-01   3.6779474e-02
  3.7992993e-01   5.7344027e-02
 -3.8205862e-01   5.0014578e-02
  1.8112028e-01   5.8492087e-02
 -2.5048766e-01   1.7208699e-02
  3.7025146e-03   6.0959421e-03
  9.5156455e-01   7.8375352e-04
  3.7047613e+00   1.8316805e-03
 -4.6061262e-01   6.9642574e-02
  4.5818928e-01   3.2215327e-02
  4.1799235e-01   3.3635896e-02
  2.1590227e-01   1.1459716e-02
  4.9613692e-02   7.1294913e-03
  2.8101531e-01   1.1880218e-02
 -1.4724728e-01   6.0314205e-02
  4.7003117e-01   3.1077860e-02
  3.3653802e-01   5.6377281e-02
  1.7986289e-01   1.3143433e-02
  2.8984860e-02   3.4324925e-02
 -6.5452337e-01   3.9313091e-03
  2.0072684e-01   1.0442325e-02
 -8.9766455e-01   3.5641164e-02
  3.1677249e-01   1.6958132e-02
 -2.9475844e-01   9.8206043e-02
 -1.0583177e+00   4.8929036e-02
 -1.4729215e-01   2.5206896e-02
 -6.6919410e-01   2.2467654e-02
 -1.5010744e-01   1.0470203e-02
  2.1962044e-01   2.3281394e-02
  1.4096692e-01   2.0940804e-03
 -2.7848437e-02   5.4134473e-02
 -1.2459281e-01   3.9770056e-02
 -6.9671023e-01   9.6308542e-03
  4.5394931e-02   1.4865455e-03
  1.7985501e+00   1.6343228e-03
  4.0327802e-01   4.8627410e-02
  2.6098615e-01   6.8330660e-02
  2.4223862e+00   5.4469858e-03
 -7.5991452e-01   2.2449277e-02
 -3.2175702e-01   5.5536024e-02
  5.9606868e-01   5.8909808e-03
 -7.1946275e-01   1.4421690e-02
 -1.3904981e-01   4.0587090e-02
  5.8890957e-01   1.5240580e-02
  1.7877169e+00   6.0827686e-03
 -2.4185084e-02   1.0123962e-02
  1.9353461e+00   1.1140526e-02
  3.8954172e-01   4.2490989e-02
 -2.1912596e-01   2.4959696e-02
  3.1783813e-01   8.2610242e-02
 -2.4122342e-01   9.5196016e-02
  2.2886477e+00   2.2259980e-02
  5.3886890e-02   3.0493844e-02
  2.3501058e-01   9.8857746e-02
 -3.5060856e-01   4.3422986e-02
 -7.6682977e-02   1.3050838e-02
  5.3521682e-02   1.0423428e-02
  2.2125745e+00   1.0806089e-02
  4.6168771e-01   6.9993913e-02
 -1.2392040e-01   9.3399405e-02
 -1.9429971e-01   1.0339696e-02
 -1.2147514e+00   9.2216715e-04
  5.1012921e+00   9.0359169e-04
 -1.9684600e-02   5.6143538e-03
  4.6533000e-01   2.8358247e-02
  2.2603533e-01   2.2489250e-02
  1.4022814e-01   2.1737365e-02
  3.8669754e-02   8.9351751e-02
  1.6319801e-01   8.2083985e-02
 -3.6514246e-01   6.4164831e-04
 -2.5092086e-01   3.1751227e-02
 -2.3020385e-01   2.3716766e-02
  2.8753040e+00   5.2169495e-04
 -1.1968791e-01   1.1947442e-02
 -2.2682403e-01   3.5656016e-02
  5.3731126e-01   5.4279171e-02
 -7.3286819e-01   8.6437529e-03