  1.9626274e+00   4.6299756e-02
  1.1323372e-01   8.1948057e-02
 -3.2357647e+00   5.0801408e-02
 -5.9819613e+00   4.9105752e-02
  5.4233712e-01   9.8409534e-02
  2.9787476e+00   9.5909826e-02
 -1.3472785e+00   6.5373652e-02
  3.1208916e+00   5.5259530e-02
  5.4476452e+00   3.7695251e-02
  9.3801558e-01   8.9868188e-02
  2.0041726e+00   9.1648370e-02
 -4.7940406e-01   8.5014470e-02
  4.6433811e+00   5.9949126e-02
 -1.4043256e+00   1.4575151e-02
  2.4974279e+00   2.7320161e-02
 -6.8182772e-01   6.3850529e-02
  3.2174103e+00   8.1995659e-02
  1.6188767e+00   5.9963915e-02
  3.2693788e-01   6.5475047e-02
 -3.1489978e+00   4.6397120e-02
  5.4187328e-01   4.0186800e-02
  7.5366741e-01   5.3720351e-02
 -1.4981369e+00   4.3157618e-02
  7.5448358e-01   6.7824763e-03
  2.1964017e-01   8.2621418e-02
 -2.4837548e-01   8.6078718e-02
 -8.7818420e-01   2.2022020e-02
  3.8332610e+00   6.7415595e-02
  4.2393670e+00   5.9771441e-02
  7.3001611e-01   2.9887080e-02
  3.9103692e+00   8.7842442e-02
 -2.4781324e-01   4.0387623e-02
 -1.0986744e-01   9.6535079e-02
  7.7929544e-01   9.9670641e-02
  8.6198248e-02   5.5026188e-02
  3.6244471e+00   7.7757329e-02
 -3.1889379e-01   6.6941254e-02
 -1.2643888e+00   2.7166827e-02
  7.4995184e-01   9.2698716e-02
 -7.4145859e-01   8.5953698e-03
  1.8533082e+00   8.4657982e-02
 -2.7446053e+00   3.3288531e-02
 -2.2918515e+00   5.3120382e-02
  1.5946865e+00   7.2528616e-02
  2.5053375e+00   5.9934799e-02
 -2.2798519e+00   9.4544187e-02
 -1.4654748e+00   6.7386366e-02
  7.6371437e-01   6.8428569e-02
 -2.8727734e-01   2.5498858e-02
 -1.4522058e+00   2.7048454e-02
 -2.2270052e-01   3.3800412e-02
 -1.5036124e+00   1.8957160e-02
 -3.0510709e+00   9.9844731e-02
  2.2953339e+00   6.9057383e-02
 -6.2586322e+00   4.8677266e-02
 -1.3899696e+00   1.9660424e-02
  8.0842692e-01   5.1616021e-02
 -3.9004719e-01   4.1066837e-02
  3.9167175e+00   9.8540075e-02
 -3.8943532e+00   8.7413847e-02
 -2.2861083e+00   5.0086282e-02
  1.7790117e+00   6.6059232e-02
  1.1625316e+00   6.0864095e-02
 -4.4819990e-01   3.3114403e-02
  2.8144512e-01   8.3784364e-02
  3.7692849e-02   5.7166919e-02
  2.7522757e+00   4.6619147e-02
 -2.1064362e-01   2.1320902e-02
  6.7459844e-02   6.3911393e-02
  1.7765648e+00   6.9954731e-02
 -5.2576261e+00   3.0223208e-02
  1.8179841e+00   2.3518719e-02
 -8.3767891e-01   4.8899498e-02
 -1.8594450e+00   7.0438549e-02
  6.6439614e+00   4.5970656e-02
  8.0337566e-01   2.4301710e-02
  5.4093647e-01   4.4862527e-02
  1.2747548e+00   9.7936928e-02
 -1.3128849e+00   6.3043050e-02
 -2.0068434e-01   3.7146799e-02
  6.8429124e-01   5.6948900e-02
 -1.3525932e+00   8.6208738e-02
 -3.0141490e+00   5.9748508e-02
  4.0618672e+00   3.1792697e-02
  9.1470331e-01   8.3802015e-02
  2.9860675e-01   5.6191485e-02
  1.6085078e+00   3.0256845e-02
 -1.3031129e+00   3.6387868e-02
  8.1645268e-01   5.2439954e-02
 -1.8852954e+00   2.2826668e-02
  1.0299828e+00   8.0174856e-02
 -1.2091849e+00   3.9773658e-02
 -3.1678801e+00   5.0821677e-02
  4.2548731e-01   5.0745342e-02
  3.3405340e+00   4.2573512e-02
 -6.8129994e-02   9.8646870e-03
 -2.2736084e-01   5.7306409e-02
 -6.6201836e-01   7.2866380e-02
  3.3982590e-01   9.9869832e-02
 -9.2419845e-01   3.1398252e-02
  3.8646526e+00   8.8787638e-02
  2.7721131e+00   9.6178547e-02
  1.2206433e+00   3.4162693e-02
  9.9915415e-02   2.7644899e-02
 -3.5868273e+00   4.9580086e-02
 -1.2240647e+00   7.2937645e-02
  1.1329352e+00   8.5916305e-03
  1.6591624e+00   9.6852221e-02
  8.3579516e-01   7.5995825e-02
  7.2710359e-01   9.3824930e-02
 -1.7441130e+00   7.9561777e-02
 -1.4347496e-02   3.2196708e-02
  1.0983472e+00   5.9994332e-02
 -1.4814116e+00   4.9690180e-02
 -1.8732582e+00   9.4372459e-02
 -1.1110725e-01   7.7832043e-02
  3.5832624e+00   2.0474348e-02
 -8.7681168e-01   4.6532571e-02
 -1.3818002e+00   9.5211089e-02
 -2.1580770e+00   6.0607180e-02
 -9.9556422e-01   2.9392421e-02
 -1.3100924e+00   3.8112134e-02
 -1.1826291e+00   9.1607280e-02
 -2.2839937e+00   9.6251830e-02
  3.1916010e+00   5.2833922e-02
 -2.1422379e+00   9.6742198e-02
  1.0119100e+00   4.8724853e-02
 -5.0585322e+00   4.2575583e-02
  1.7304486e+00   8.9668855e-02
  4.2080064e+00   7.3476851e-02
 -1.8115383e+00   5.2894566e-02
 -1.2964456e+00   1.9170653e-02
  1.0303282e+00   7.4573703e-02
 -3.3015449e+00   5.2945226e-02
  2.4523048e-01   7.5318009e-02
  6.6503423e-01   7.7291533e-02
  1.5762973e+00   1.7982464e-02
 -3.3336108e+00   3.5321254e-02
  3.3891022e-01   7.7061065e-02
 -2.9714026e+00   6.5639518e-02
  5.0576177e+00   4.6149198e-02
 -5.5267924e-01   7.4682958e-02
 -3.1842610e-01   4.1522097e-02
 -1.8630948e+00   1.9253977e-02
  1.3656019e+00   8.8914700e-02
  2.6567898e+00   5.3845238e-02
 -4.3376854e-01   9.5390365e-02
 -3.6374142e+00   7.4955538e-02
  2.0679426e+00   6.4979538e-02
 -4.4405017e+00   1.2847340e-02
 -9.9476367e-01   4.0871304e-02
 -7.1507668e-01   6.0550733e-03
 -2.2972274e+00   4.5699067e-02
 -2.3478901e+00   7.0299722e-02
 -3.3769815e+00   8.3414599e-02
  2.7897809e+00   7.0763469e-02
 -1.0808200e+00   3.7293922e-02
  6.6529465e-01   2.9715408e-02
  1.1685354e+00   5.1635306e-02
  4.0729076e-01   2.8647721e-02
 -1.9469268e+00   3.1158440e-02
  9.2035013e-01   4.1649047e-02
  3.1023655e+00   7.2519422e-02
  4.4431111e-01   9.3663462e-02
  2.1456652e+00   5.9149548e-02
 -2.1724829e-01   8.9381918e-02
 -4.8573394e+00   3.2548100e-02
 -2.4175851e+00   3.9125253e-02
 -2.7218485e+00   5.8239724e-02
 -9.2923099e-01   5.5675570e-02
 -5.5830203e-02   4.5151364e-02
 -4.1927540e-01   8.2198307e-02
  7.4438846e-01   1.4460154e-02
  1.9560906e-01   6.6300191e-02
 -1.4121728e+00   1.9969782e-02
  1.3851470e-01   6.8514660e-02
  5.3492417e+00   8.5160390e-02
  1.2235101e+00   4.1856114e-02
  1.7248755e+00   4.7332082e-02
 -1.9513105e+00   2.4792854e-02
 -9.6870673e-01   6.5071762e-02
 -1.7767792e+00   6.3875645e-02
 -4.3638134e+00   2.5540859e-02
  1.5844382e+00   8.1879139e-02
  1.2979581e+00   5.3777833e-02
  2.2030098e+00   9.9644452e-02
  5.0424337e+00   8.4983774e-02
 -1.1019681e+00   4.2261228e-02
 -4.7960567e+00   8.3704218e-02
 -2.8405221e+00   6.4773865e-02
  3.8100597e-01   5.7768453e-02
 -1.2819333e+00   4.2502061e-02
 -1.7706822e+00   3.4968432e-02
  1.2300150e-02   5.8939539e-02
  5.0519977e+00   6.3335530e-02
  8.8102221e-01   3.1175856e-02
  7.0927942e-01   1.7840788e-02
 -2.0795367e+00   4.3201622e-02
 -2.2127521e-01   1.1126166e-02
 -9.4989896e-02   7.4115179e-02
  3.5231538e+00   2.8738391e-02
  5.5782981e+00   6.7768559e-02
  6.8363357e+00   6.1725687e-02
  1.0031267e+00   4.1803300e-02
  1.8152617e+00   4.8172303e-02
  2.8611214e+00   3.3978391e-02
  1.1355363e+00   3.9297156e-02
  9.6545464e-01   5.4007068e-02
 -1.0711123e+00   4.3576784e-02
 -2.1087379e+00   3.6644451e-02
 -1.5294412e+00   8.4264874e-02
 -1.6425449e+00   3.8258374e-02
 -4.7602682e+00   8.3856918e-02
  7.0032871e-01   9.7789079e-02
 -9.4444215e-02   8.1497608e-03
  2.3478334e+00   4.8322566e-02
 -2.0489953e+00   7.2828084e-02
  3.8521488e+00   8.7249249e-02
  1.3313662e+00   1.3040667e-02
  3.7452221e-02   6.9039561e-02
  1.9662721e+00   9.9529251e-02
 -4.2092338e-02   8.8966571e-02
 -1.6523861e+00   6.3581526e-02
  1.8650138e+00   3.3746336e-02
  3.6414719e+00   2.7384156e-02
  1.8972564e+00   6.3724943e-02
  2.6365521e+00   8.8100053e-02
  1.1679327e+00   9.8493002e-02
 -1.9949141e-01   6.4080857e-02
  1.8597725e-01   6.2836781e-02
  4.4078746e+00   4.3517362e-02
  2.7257767e-01   2.8147250e-02
  3.5070596e+00   3.5150062e-02
  2.5392187e-01   3.3658665e-02
  2.8182501e-01   8.9688592e-02
 -3.7037876e-01   7.8257389e-02
  5.0610262e-01   8.4943868e-02
 -4.1642648e-01   6.3244957e-03
  1.3938608e+00   2.5824610e-02
  3.0885220e+00   9.8989710e-02
  6.3106055e+00   7.2278835e-02
  1.5224835e+00   4.6382852e-02
  2.1569400e+00   4.5769554e-02
  3.6454365e+00   8.4210530e-02
  2.4027838e-01   9.4364889e-02
  2.8552222e+00   6.9116302e-02
 -2.1963692e+00   7.7917844e-02
 -2.7643418e+00   1.8332122e-02
  1.3967956e+00   7.8492321e-02
  6.3944049e+00   5.8806422e-03
  4.3108878e+00   8.4062435e-02
  2.6248028e+00   2.8490949e-02
  7.9519087e-01   1.3711648e-02
  8.8523701e-02   9.4221206e-03
 -3.3407397e+00   5.5548009e-02
 -5.3426008e+00   5.2775290e-02
 -2.1882744e+00   4.3932926e-02
  1.3172823e+00   1.2733907e-02
  3.3103216e+00   7.5121306e-02
 -3.5150709e+00   7.8544848e-02
  2.2931075e+00   4.9650211e-02
 -2.3980875e+00   4.5637552e-02
 -4.5298317e-01   5.9518576e-02
 -1.1853329e+00   8.3297662e-02
 -2.6781671e+00   1.8917261e-02
 -5.3303823e-02   5.4783572e-02
  9.2384589e-01   5.9260670e-02
  8.9484680e-01   6.3036107e-02
  8.6530560e-01   2.7731452e-02
  2.2678192e+00   7.7738427e-02
 -2.2926110e-01   3.5287477e-02
  2.9456799e+00   8.8236310e-02
 -9.9599665e-01   3.4176085e-02
  9.4665259e-01   9.0032965e-02
  2.6067984e+00   6.5333731e-02
 -3.6372286e-01   5.0340697e-02
 -2.9294091e-01   6.0733069e-02
  1.5399313e-01   9.9633582e-02
  8.9664716e-01   4.2054106e-02
 -1.1874739e+00   3.6425449e-02
 -4.1447062e+00   1.1961510e-02
 -2.8341644e+00   2.3310829e-02
 -2.0248604e+00   4.9820073e-02
  1.4750452e+00   2.0893443e-02
  4.3276548e+00   6.4346001e-02
  2.6886263e-01   8.9831941e-02
  6.3741273e-01   4.0547594e-02
  2.0266492e+00   2.0636020e-02
  5.5827934e-01   2.1263532e-02
 -4.9268532e-01   7.6438658e-02
 -1.6531203e+00   8.8132888e-02
 -2.4905269e-01   9.4184309e-02
  1.2340631e+00   4.3054305e-02
  2.5720456e+00   3.9687555e-02
 -9.0830833e-01   5.9927952e-02
 -7.5401455e-01   6.0402460e-02
 -1.0099968e-01   7.1185194e-02
 -1.8743669e+00   5.5915918e-02
 -3.7701113e+00   8.4844992e-02
 -6.6432232e-01   4.0412374e-02
 -3.8570890e-01   5.7004329e-02
 -6.0788465e-01   8.1211016e-02
 -1.4772512e+00   7.5916156e-02
  4.2053911e-01   7.8034811e-02
 -1.7330555e+00   7.7886589e-02
 -6.2749738e-01   5.4654412e-02
  4.4275179e+00   4.2072583e-02
  4.1334468e-01   2.1529572e-02
  9.3385917e-01   3.4732398e-02
 -4.5246992e+00   7.6639920e-02
  2.5206339e+00   7.7985570e-02
  9.5798659e-01   9.3497604e-02
 -1.6567545e+00   3.9083537e-02
 -6.1590666e-01   4.9491558e-02
  9.6538246e-01   9.1669373e-02
  1.7892854e+00   2.0349061e-02
  6.8825865e-01   9.5385343e-02
  1.9509268e+00   2.7639538e-02
  5.2188563e-01   2.3949830e-02
 -2.5727875e+00   3.8732778e-02
  1.3288747e+00   5.8596343e-02
  6.3916206e+00   4.4866160e-02
 -5.5976582e+00   4.7586467e-02
  6.2784427e-01   4.2205032e-02
 -4.4549309e-02   7.0415683e-02
 -1.5508421e-01   3.2546781e-02
 -7.2501886e-01   6.1727557e-02
  1.5013800e+00   9.3497090e-02
  2.5123980e+00   3.3716537e-02
  8.3246642e-01   7.6439813e-02
  3.0617410e-01   5.1132556e-02
 -6.7559896e+00   3.7794266e-02
 -5.2698004e-01   5.9707955e-02
  8.6389355e-02   2.1610498e-02
 -5.7165122e-01   5.6386862e-02
  1.8781312e+00   1.2913406e-02
  5.1198297e+00   3.5143487e-02
 -5.8931136e-01   6.5242581e-02
  2.0170805e+00   2.1229653e-02
  8.2866520e-01   8.0185451e-02
  2.2955580e+00   2.1064525e-02
  2.8835506e+00   6.1908312e-02
 -5.1595206e+00   6.4585030e-02
  7.9216743e-01   3.0883973e-02
 -1.9382210e+00   6.0872510e-02
 -2.5718651e+00   8.9937590e-02
  2.5908353e+00   3.7968088e-02
 -7.1044528e-01   7.6211326e-02
 -1.0010979e+00   2.3055850e-02
  1.0747633e+00   8.2366168e-02
 -7.8891754e-01   5.9557050e-02
  2.8912086e+00   8.1411608e-02
 -5.1510620e-01   4.4793133e-02
 -1.4214387e+00   8.4745564e-02
  3.3088794e+00   4.3672178e-02
  2.4469030e+00   4.9491774e-02
 -2.4309042e+00   3.0291645e-02
  1.3893698e+00   1.9089501e-02
 -2.0682392e-01   4.0141810e-02
  1.4597851e+00   6.5710656e-02
 -4.9170270e+00   6.5078951e-02
  1.1265682e+00   2.6660234e-02
  2.1199272e+00   7.8237891e-02
 -4.4780862e-02   4.1258156e-02
  4.0363812e-01   5.4197397e-02
  5.8044429e+00   6.3586056e-02
 -2.8881836e+00   2.0461947e-02
 -6.2969142e-01   9.3731046e-02
 -1.6121879e+00   8.2241513e-02
  6.7497700e-01   2.4791362e-02
 -3.4182307e-01   7.3749386e-02
 -4.3936241e-01   3.5489358e-02
  3.7624049e+00   9.6673913e-02
 -5.2826351e-01   4.7376845e-02
 -5.4536444e-01   3.3282373e-02
  6.4963899e+00   4.5118995e-02
  3.9361672e+00   7.9991065e-02
 -3.7150779e+00   2.9506035e-02
  2.9395275e+00   9.1801800e-02
  3.8914332e-01   4.5740657e-02
  4.8394147e-02   3.1625051e-02
 -7.7408686e-02   4.2689480e-02
  1.0805787e+00   3.0004971e-02
 -1.9126478e+00   3.9098781e-02
  5.4804200e-01   5.4795083e-02
 -6.6591704e-01   9.7736962e-02
  5.4823022e+00   4.7474202e-02
  1.0671713e+00   2.0461896e-02
  2.9548774e+00   9.5209919e-02
  1.1103573e-01   3.0958313e-02
 -4.0657172e+00   5.5703852e-02
 -8.7751645e-01   4.4917107e-02
 -4.7498378e-01   6.8652764e-02
  5.3903031e-01   3.3963133e-02
 -4.5843521e-01   1.9620348e-02
  3.1480440e-01   5.5217162e-02
 -3.4050121e+00   6.9955297e-02
 -2.6178167e+00   6.2475543e-02
 -2.1859136e+00   2.2571417e-02
  1.8792301e-01   8.3485641e-02
 -1.0951779e+00   2.7672214e-02
 -4.2906782e-01   2.2924105e-02
 -4.3986976e-01   9.2077143e-02
  9.9208093e-01   2.3838187e-02
 -2.2491238e+00   3.0913645e-02
  2.2396452e+00   3.8912468e-02
  1.0182745e+00   3.7146483e-02
 -2.9524350e+00   6.3295327e-02
  2.0621884e+00   5.6714032e-02
 -6.3932884e-01   4.7413219e-02
 -1.3093269e+00   3.7492037e-02
  6.3504785e-01   5.5044251e-03
  8.7782943e-01   1.1378287e-02
  2.7704525e+00   3.8138922e-02
 -4.8581660e-01   7.8924768e-02
 -3.7357047e+00   2.0833492e-02
  3.8778681e-01   5.0803479e-02
  4.1327396e-01   9.0428717e-02
  7.6719346e-03   5.6533046e-02
  1.8261490e+00   3.3255331e-02
  4.1505132e+00   8.9685254e-02
 -8.4536600e-01   1.9053357e-02
 -1.4371980e+00   6.3457109e-02
 -1.0592490e+00   9.3412131e-02
 -1.0110767e-01   1.9104986e-02
 -1.4912276e+00   5.7454396e-02
 -1.3011321e+00   1.9819789e-02
  2.1119395e-01   1.5250859e-02
  4.9943853e-02   9.9274389e-02
 -5.8572769e-01   8.6224131e-02
 -2.1277428e+00   4.3205980e-02
 -1.1248924e+00   8.4363081e-02
 -3.6027789e-01   6.9823787e-02
  7.8297895e-01   8.7797679e-02
 -9.1066051e-01   3.0370848e-02
 -2.6888466e+00   5.9712317e-02
 -3.0431300e-01   8.6029381e-02
  7.3990422e-01   6.4499445e-02
  5.3819209e-01   4.5712229e-02
 -4.6707354e+00   7.7347435e-02
  9.0371060e-01   9.6315719e-02
  1.0100287e+00   3.3635102e-02
  1.1598995e+00   4.1021030e-02
 -1.7570893e+00   5.5042274e-02
 -4.0970397e-01   6.6997074e-02
  1.4905152e+00   1.7820681e-02
  1.1257198e+00   5.9538439e-02
  2.6718483e+00   7.4906267e-02
  1.5173391e+00   8.6881444e-02
 -1.5199819e+00   5.9175763e-02
  1.9321464e-01   9.7888254e-02
 -1.6980568e+00   2.4936641e-02
  1.2688161e+00   8.6311035e-02
  3.3238752e+00   1.6679136e-02
  9.1089094e-01   7.1055107e-02
  1.7186261e+00   8.0171488e-02
 -2.2731261e-01   4.2865410e-02
  4.6774313e-01   4.9217694e-02
 -5.1850623e-01   5.4468971e-02
 -9.3962193e-01   1.1174213e-02
  1.1740537e+00   4.7116816e-02
  7.5864100e-01   1.9548221e-02
  6.1412966e-01   4.7683600e-02
 -5.8425266e-01   6.3605666e-02
 -3.4040868e+00   3.2229707e-02
 -3.7737840e-01   6.0487654e-02
 -6.2156081e-01   5.8743455e-02
  2.4343872e+00   5.6930136e-02
  1.0876936e+00   3.1533122e-02
  3.8170457e+00   7.0321605e-02
  3.2926910e+00   4.6983283e-02
 -9.4255108e-01   2.8805932e-02
  1.5509239e+00   4.5239404e-02
 -5.0749588e-01   5.7808369e-02
 -3.4769895e+00   2.6974708e-02
  7.3659219e-02   2.2508482e-02
  6.9164944e-01   3.2407194e-02
 -5.1243377e-01   2.6028676e-02
 -1.0089688e+00   3.1184351e-02
  6.9198690e-02   3.2122262e-02
  3.3964305e+00   3.9432947e-02
 -2.9019403e+00   6.2758900e-02
  1.7944286e+00   6.5892659e-02
 -1.9150058e+00   1.9669600e-02
 -2.5370827e+00   6.5691344e-02
 -2.2926512e+00   5.2712668e-02
  2.2298937e+00   4.6465356e-02
 -6.9870490e-01   3.9645124e-02
 -4.7488947e+00   7.7649981e-02
 -1.6055479e+00   3.4422334e-02
  4.3471537e+00   7.8151487e-02
 -2.6742250e-01   3.3087306e-02
 -3.1838572e-01   7.3659219e-02
  3.4878726e+00   7.8060523e-02
 -5.7098293e-01   3.5994384e-02
 -5.3407097e+00   9.5070884e-02
 -1.8344531e+00   3.2121301e-02
  3.4092739e-01   4.3486454e-02
 -6.5324411e+00   8.1307717e-02
 -3.4023294e+00   3.7022557e-02
 -1.3448201e-01   4.1663144e-02
 -4.0406391e-01   5.9354234e-02
 -3.6991706e+00   3.0536786e-02
 -1.0679476e+00   9.6312463e-02
 -5.7176489e-01   7.1936019e-02
  8.6306132e-02   5.3394545e-02
  3.1447573e+00   3.9794799e-02
  1.8660622e+00   4.2011648e-02
 -3.1856902e+00   3.3658527e-02
 -1.7278793e+00   8.6055569e-02
 -1.4035959e+00   5.7754345e-02
  2.3561697e+00   3.7571434e-02
  4.3720579e+00   3.5593558e-02
 -2.5924628e+00   9.0888120e-02
  4.2496500e+00   1.6600966e-02
 -1.2654877e-01   8.9601241e-02
 -6.7006248e-01   4.3161891e-02
 -1.5681154e+00   3.9478853e-02
 -1.1431195e+00   8.3144128e-02
 -4.7898736e+00   6.6580050e-02
 -5.2269995e-01   2.7680855e-02
  8.1882226e-01   2.1356640e-02
  4.6379328e-01   6.5501653e-02
  2.9272976e+00   8.7434836e-02
  2.0516760e+00   6.3400261e-02
 -5.4748940e-01   4.9383163e-02
  1.3897487e+00   1.3186347e-02
 -2.6449506e+00   3.7032958e-02
 -1.9169602e+00   7.1096336e-03
  7.4792635e-01   9.7099014e-02
  8.3923805e-01   3.4080092e-02
  2.8697414e+00   8.0938891e-02
 -2.7244229e+00   9.2968725e-02
 -2.5256865e+00   3.3231776e-02
 -3.2275059e+00   9.0997510e-02
  2.6789896e+00   5.4107193e-02
  8.4108138e-01   7.6354817e-02
  1.9957383e+00   2.7812909e-02
 -1.4918253e+00   4.2766646e-02
 -6.3481116e-01   2.3898814e-02
  2.3023731e-01   6.9635428e-02
 -1.2961813e+00   6.2049102e-02
  3.1930740e+00   5.2499421e-02
  5.0932395e-01   2.3153486e-02
 -1.3224329e+00   8.6181805e-02
  1.8469181e+00   3.1116810e-02
  3.3841939e+00   4.6702825e-02
  3.3804107e+00   8.7670602e-02
 -3.0250955e-01   6.9803849e-02
 -1.7537452e+00   3.1419739e-02
  5.3626504e-02   4.7030427e-02
  7.3402214e-01   7.1404263e-02
  1.7951387e+00   9.1248631e-02
 -2.0037301e+00   9.6213631e-02
  3.8195877e+00   7.1210198e-02
  1.8064500e+00   9.2720374e-02
  4.7813234e+00   6.2537864e-02
 -8.5131937e-01   8.2408763e-02
 -1.8751004e-01   4.9118679e-02
  2.0661300e-01   4.0910453e-02
  7.5400639e-01   2.8824313e-02
 -2.0857289e-01   6.2762089e-02
 -1.4357609e-01   7.4282095e-02
 -1.7683007e+00   4.5163028e-02
 -9.9144340e-01   6.9422349e-02
  9.0445477e-01   8.1644744e-02
  1.1925434e+00   8.9251041e-02
 -9.1193128e-01   8.4224336e-02
  8.3936267e-02   8.2235336e-02
  5.3643689e+00   8.4082425e-02
  3.8625348e+00   6.1287273e-02
  3.1427329e+00   7.9482775e-03
 -1.5433347e+00   8.9330345e-02
  1.0063726e+00   5.8549989e-02
  1.4052453e+00   7.7077724e-02
  3.2498920e-01   7.8116059e-02
 -3.1806311e-01   4.4529516e-02
  1.0787007e+00   6.3597940e-02
 -2.2660749e+00   7.8629903e-02
 -1.6994073e+00   4.2297553e-02
 -1.9194393e+00   3.0485209e-02
 -3.0244184e-01   7.9786524e-02
 -1.2969685e+00   1.1266156e-02
 -1.6355128e+00   9.2586860e-02
 -2.0863221e+00   6.2137131e-02
  3.9637117e+00   5.5490583e-02
 -1.4997164e+00   8.7516725e-02
 -1.0368029e+00   7.7922180e-02
 -1.7039183e+00   7.7901512e-02
  1.1096818e+00   4.7579855e-02
 -6.1353117e-01   6.0074337e-02
  4.2486176e+00   8.6171471e-02
  2.4733932e+00   9.9187098e-02
 -5.4954576e-01   6.3252360e-02
  1.2896253e-01   5.3133942e-02
 -2.3510656e+00   2.4026517e-02
 -7.7400684e-01   8.0454566e-02
 -3.7479138e+00   4.2620476e-02
 -1.6124513e+00   2.4482505e-02
  1.7393843e+00   3.0158591e-02
 -7.3762363e-01   3.2302309e-02
 -1.7570863e+00   5.6740995e-02
  3.6019468e-01   6.5528929e-02
 -5.7159531e-01   8.1292115e-02
 -1.3658690e+00   8.3346635e-02
 -5.8780074e-01   2.9040838e-02
 -1.4458859e+00   7.6943412e-02
  4.2316723e+00   1.4415824e-02
  2.3256297e+00   8.5509285e-02
  1.8002968e-01   4.9097478e-02
  1.8408247e+00   6.7562863e-02
  3.4365636e-01   2.2629442e-02
 -2.3859403e+00   7.3415212e-02
  9.3813479e-01   3.2527413e-02
  2.9772110e+00   3.4646418e-02
  1.7882276e+00   8.7360211e-02
 -1.3070202e+00   2.3696583e-02
  2.5124913e-01   7.0617452e-02
  4.2500713e-01   5.6045521e-02
  1.1457901e+00   6.2346864e-02
  1.4864953e+00   5.7429519e-02
  2.2815857e+00   6.2227577e-02
  4.1474705e+00   9.5218107e-02
  1.2798999e-01   3.7263203e-02
 -3.6597440e-01   9.6109368e-02
 -1.7283407e+00   5.4912474e-02
 -1.4963801e+00   5.1594481e-02
 -1.4223123e+00   7.4628606e-02
  1.7223653e+00   3.2370429e-02
  1.1277243e+00   9.6319184e-02
 -1.4220241e+00   8.8915303e-02
  1.1950754e+00   2.0702643e-02
  1.8490403e+00   7.3396236e-02
  1.0331527e+00   3.2547854e-02
  1.1309786e+00   9.1062747e-02
 -2.0635247e+00   4.2319641e-02
 -2.9997668e+00   8.0930836e-02
  6.6373056e-01   8.4845565e-02
 -1.4460046e+00   8.1400722e-02
  1.7230880e+00   2.1974985e-02
  3.2909999e+00   5.4410268e-02
  1.3889030e+00   2.1681000e-02
  1.9172709e+00   2.1355707e-02
  1.0110652e+00   1.6104048e-02
 -3.6007941e+00   7.3817521e-02
 -1.5486661e+00   1.4939160e-02
  3.4940269e-02   3.1623796e-02
  1.5120673e-01   3.0597722e-02
  1.6202193e-01   3.5825372e-02
 -1.7078260e+00   8.4908940e-02
 -1.4687004e+00   4.2407088e-02
  1.5894746e+00   6.2933266e-02
 -2.0802658e+00   2.8850198e-02
  1.4265444e+00   6.1731990e-02
 -7.5932938e-01   4.5208808e-02
  3.8525814e-01   3.6641348e-02
 -1.5261905e+00   3.9070886e-02
  4.0985756e+00   6.7266613e-02
 -1.7927634e+00   3.0385621e-02
  3.3835226e-01   5.6675375e-03
 -8.7372911e-01   5.2449301e-02
 -2.1290946e+00   6.7148156e-02
 -1.6444730e+00   2.1822311e-02
 -9.4801629e-01   6.8854243e-02
 -9.4155717e-01   1.0548566e-02
 -4.7611496e-01   5.0808731e-02
 -6.5932007e+00   7.4590638e-02
  2.5925031e-01   5.9035003e-02
 -3.9276717e+00   5.1939454e-02
 -3.1807226e-01   7.1168639e-02
 -1.4081154e+00   2.5005732e-02
  9.4555736e-02   2.5523119e-02
 -2.6474895e+00   4.4403166e-02
 -4.0541601e+00   6.9168717e-02
 -1.3351240e+00   3.0101063e-02
  2.5048935e+00   4.6644032e-02
 -3.5914600e+00   6.1916713e-02
 -5.7294312e+00   3.2549933e-02
 -2.9138453e+00   1.5838716e-02
  2.2174768e+00   7.4028194e-02
  1.7609004e+00   4.2031009e-02
 -1.0805539e+00   4.0322207e-03
  5.5695069e-01   9.7344771e-02
  4.9304822e-01   5.4637473e-02
 -9.1837361e-02   5.4488480e-02
 -3.8539822e+00   9.4260506e-02
  3.4357551e-01   3.7588261e-02
 -2.7304139e+00   4.6151496e-02
 -1.1955031e+00   6.7957595e-02
 -2.6110926e-01   3.2377981e-02
  5.6894803e-01   6.1888508e-02
  1.4946432e-02   8.5894793e-02
  3.8240460e-01   2.8787542e-02
 -2.1090443e+00   9.9117965e-02
 -1.3679113e+00   3.0167621e-02
 -7.2585218e-02   6.4173371e-02
  4.1585407e+00   7.4968822e-02
 -5.3105750e+00   4.3166012e-02
 -1.9916579e+00   4.8264224e-02
 -2.6798599e+00   1.8750472e-02
 -1.0879475e+00   7.2104760e-02
  1.7091213e+00   3.0902149e-02
  7.5519246e-01   4.3927640e-02
  3.3189137e+00   8.1973523e-02
 -9.2717052e-01   6.0681388e-02
 -1.7073439e+00   6.4541407e-02
 -2.8717599e+00   9.1929056e-02
  6.1245596e-01   1.3848886e-02
 -3.1489911e+00   8.5617371e-02
  1.8451331e+00   6.6494860e-02
 -1.2149875e+00   2.1808805e-02
 -1.7101392e+00   4.9570151e-02
  4.4920802e+00   3.7363064e-02
 -1.6010864e+00   8.2993023e-02
 -2.8700159e+00   7.9157487e-02
  2.8871524e+00   6.8424791e-02
  4.1267672e+00   3.1158293e-02
  4.2010754e-01   5.6515243e-02
 -6.3636303e+00   6.1064322e-02
 -4.3245941e-01   1.4349834e-02
  6.6158772e-01   7.5482935e-02
 -4.1686815e-01   9.5682077e-02
  1.2824095e+00   6.1926063e-02
 -1.8364420e+00   3.9752804e-02
 -1.5100609e+00   3.1110011e-02
 -9.5319241e-01   6.2626190e-02
 -1.5065305e+00   6.6154800e-02
 -2.6415751e+00   5.3842817e-02
 -1.7339036e+00   5.4853845e-02
 -1.7760770e+00   5.8791179e-02
 -1.6978421e+00   1.4549403e-02
  1.2790015e+00   8.9900330e-02
 -3.5950291e-01   5.7008009e-02
 -7.4322805e+00   3.8365982e-02
 -2.8256228e+00   5.1685162e-02
  1.4377460e+00   1.9344825e-02
  1.9469110e+00   3.4478117e-02
 -5.0153232e-01   5.5825878e-02
 -5.9995048e-02   8.4745347e-02
  1.1004471e+00   4.2929757e-02
  1.8983997e+00   6.2927552e-02
  1.5344380e+00   8.5881755e-02
 -2.1162748e+00   6.0789075e-02
 -1.8164914e+00   1.5500856e-02
 -4.9521542e-01   4.3842927e-02
 -6.2855142e-01   4.2252284e-02
 -4.8611870e+00   6.2639803e-02
 -2.7714908e-01   9.3999125e-02
  2.0123215e+00   9.1748983e-02
  3.0271688e+00   5.9204891e-02
 -1.9135534e+00   2.1344244e-02
  1.4894006e+00   4.6670429e-02
 -1.8861845e+00   7.7266462e-02
 -6.8899150e+00   7.0618302e-02
 -1.0424452e+00   7.1642391e-02
  1.4963770e+00   9.7068094e-02
  1.2844115e-01   3.0319359e-02
  1.2362972e+00   2.2395056e-02
 -2.0838823e+00   9.7471409e-02
 -1.9402601e-01   2.6075423e-02
 -9.4646597e-01   8.5506395e-02
 -3.5336084e+00   4.1230775e-02
 -9.1168189e-01   2.0619782e-02
  4.3720093e-01   3.8604442e-02
 -1.7868370e+00   9.0899363e-02
 -5.7376665e-01   3.4057338e-02
  5.5766743e-01   4.1533969e-02
 -9.5794463e-01   5.3272892e-02
  6.6786848e-02   7.6896794e-02
 -2.2989109e+00   2.8957861e-02
  2.1312613e+00   2.9394176e-02
 -3.2484651e-01   2.1066863e-02
  1.3989761e+00   4.3343659e-02
 -6.0414152e+00   8.3157599e-02
  1.4743347e+00   9.5556162e-02
  4.5908699e+00   2.3387836e-02
  5.6023030e+00   9.2144541e-02
  4.5760746e+00   7.2203219e-02
 -3.4315258e-01   2.0873668e-02
 -6.6549516e-01   2.6667349e-02
 -5.1989918e+00   2.5323655e-02
 -2.8589878e+00   5.7981774e-02
  1.9813769e+00   7.1956687e-02
  1.5966076e+00   2.8571358e-02
 -1.3184938e+00   4.5152921e-02
  3.6116934e-01   4.0117741e-02
  5.7205200e+00   8.3696119e-02
  8.6055055e-02   5.3980574e-02
  3.8152084e-01   9.8050438e-02
 -4.1051412e+00   8.1017531e-02
 -3.8850058e-02   2.9477969e-02
  1.6470790e+00   7.8359775e-02
 -1.1104670e+00   8.7270223e-02
  1.3524221e+00   9.1383435e-02
  1.8749164e+00   3.3320177e-02
 -7.8381366e-01   3.8520060e-02
  3.5320642e+00   6.4473942e-02
 -2.4511800e+00   3.4731761e-02
 -1.4717588e+00   9.4537176e-02
  2.3489983e+00   7.0939943e-02
  1.8278697e+00   6.0993593e-02
  6.2147874e-01   8.9683279e-02
  1.1799363e+00   4.9296372e-02
  2.2608094e+00   1.9091327e-02
 -3.2243309e+00   7.2376549e-02
  2.0483065e+00   5.9380874e-02
 -1.6971056e+00   5.0746463e-02
  1.0973490e+00   5.1594701e-02
  9.1852242e-01   6.0018938e-02
 -5.2495056e-01   3.1745926e-02
  1.1038972e+00   5.2580789e-02
 -4.9092498e+00   6.2491257e-02
 -3.3407514e+00   7.4776314e-02
  2.5152048e-01   6.8703718e-02
 -5.6397742e-01   3.6053017e-02
  1.2186354e-01   9.6896574e-02
 -4.7729440e+00   7.7149734e-02
 -7.0206839e-01   8.7408219e-03
  2.1532958e+00   8.1828058e-02
  1.0474926e+00   6.8526432e-02
  2.4483886e-02   8.7549247e-02
 -7.1794063e-02   2.9948842e-02
 -1.0629019e+00   7.0796445e-02
 -2.3049681e+00   5.8087330e-02
 -7.5462985e-01   3.1819966e-02
 -8.9281845e-01   6.3647978e-02
  5.3659447e-02   7.3178761e-02
 -3.1762891e+00   2.0654988e-02
  1.8914376e+00   7.8168713e-02
 -1.1047046e+00   9.0370096e-02
  8.2315941e+00   6.9593132e-02
 -8.8080519e-01   3.1027872e-02
 -1.9380176e+00   2.4096254e-02
 -1.6938620e+00   9.1782860e-02
  2.6246965e-01   1.7361784e-02
 -8.3815503e-01   8.0493547e-02
 -2.5969694e+00   3.0459885e-02
 -1.0602673e+00   1.3188744e-02
 -1.6773958e+00   8.0488257e-02
 -3.9193931e-01   3.6947895e-02
  3.3166714e+00   7.7716835e-02
  4.8508182e+00   8.4872089e-02
 -8.4583178e-02   1.7591061e-02
  9.2616118e-02   3.1411353e-02
 -2.6089795e+00   5.8838569e-02
  1.5008703e+00   9.4907798e-02
 -2.9007020e+00   9.5374033e-02
  2.6278329e-01   1.0094066e-02
 -1.5172161e+00   1.5873453e-02
 -3.4729338e-01   3.7147485e-02
  2.1583185e+00   8.4052287e-02
 -3.4027007e+00   2.6246322e-02
 -2.7445519e-01   9.8337248e-02
  1.3889012e+00   2.6334938e-02
 -3.6519570e+00   5.6588970e-02
 -2.0669224e+00   3.0340821e-02
  1.3871440e+00   2.2338023e-02
 -5.8901696e+00   5.4752905e-02
 -2.2398844e-01   1.7457373e-02
 -2.0963852e-01   2.1652350e-02
  2.0997660e+00   3.4930576e-02
 -3.9133055e+00   5.0887313e-02
 -1.3890873e+00   3.9894372e-02
  1.6006245e-01   8.8386483e-02
 -9.6736783e-01   4.5498900e-02
  7.5275445e-01   3.6361396e-02
  4.8589647e-01   1.5052951e-02
  3.3330650e+00   1.4132166e-02
 -1.0857852e+00   6.6315718e-02
  2.6300462e-04   7.3965520e-02
 -7.3090810e-01   8.8119693e-02
  1.1537868e+00   7.7481560e-02
  5.8445418e-01   4.5627084e-02
  2.1526604e+00   5.9660580e-02
  1.0754626e+00   3.7563391e-02
 -2.5457032e+00   8.9322895e-02
  1.5316737e+00   1.9057291e-02
 -4.2178714e-01   2.1784300e-02
 -3.2090411e+00   4.8169699e-02
 -6.3761252e-01   2.4424717e-02
  2.2358937e+00   8.3036616e-02
 -2.7015305e-01   2.2401104e-02
 -1.5692620e+00   5.6637105e-02
  1.9591799e+00   6.8307005e-02
 -7.0264597e+00   5.9666976e-02
  6.6568637e-01   7.8190669e-02
 -6.8988913e-01   6.7273624e-02
  1.2112598e+00   9.0245143e-02
 -1.8496773e+00   1.6452441e-02
  9.0396553e-02   3.0109845e-02
 -6.8473721e-01   8.1602737e-02
 -9.5929956e-01   9.6775763e-02
 -2.0074129e+00   2.5977766e-02
  4.4298407e-01   1.9926025e-02
  1.7393230e+00   3.4197330e-02
 -2.6429794e+00   3.5304904e-02
  2.5917311e+00   3.5995815e-02
  1.5187262e+00   6.4638689e-02
 -6.0826057e-01   3.5275690e-02
 -2.3671188e+00   6.9875240e-02
  3.1928778e+00   7.2092220e-02
 -3.2001684e+00   7.6883316e-02
 -4.8174661e-01   6.3345507e-02
 -2.9043844e+00   8.9788049e-02
  9.4757062e-01   9.4269156e-02
  1.6772405e+00   9.1317758e-02
  3.7240601e+00   1.5603789e-02
  1.9953530e-01   3.5432022e-02
  9.3140918e-01   5.6808729e-02
 -2.1348696e+00   9.3985982e-02
  1.8528888e+00   4.4242378e-02
  3.3456116e+00   2.1299995e-02
 -4.4754329e+00   1.0170555e-02
 -7.5046891e-01   8.6049512e-02
 -8.6672771e-01   4.9658172e-02
  3.0252447e+00   8.8387877e-02
  2.2250073e+00   4.1660443e-02
 -1.6471539e-01   4.8939295e-02
  1.1206182e+00   8.3270662e-02
 -2.2666409e+00   5.4874167e-02
 -3.7240925e+00   5.2270923e-02
 -9.5531487e-01   3.5577189e-02
  4.0729189e+00   4.5311477e-02
  8.3627301e-01   5.0323144e-02
  1.3629329e-01   9.6562505e-02
  1.0383985e+00   3.4700576e-02
 -3.8543200e+00   3.4932882e-02
  3.9810035e-01   5.3687960e-02
  2.8521636e-01   7.3010065e-02
  4.1966629e-01   2.7156467e-02
  1.1332098e+00   5.6491964e-02
 -2.7749342e-01   8.9502983e-02
  2.6983774e+00   2.4573805e-02
 -2.3319008e+00   3.5490360e-02
  3.5027673e+00   9.2302747e-02
  3.5680121e-01   4.5874786e-02
  3.5509402e-01   5.5575978e-02